; ITP file created by ByteFF-ML, 2025-12-06 08:13:53.442689

[ atomtypes ]
;name           bonded.type        at.num        mass        charge   ptype           sigma         epsilon
 c0bf                                   6      0.0000       0.00000       A     3.31534e-01     4.13952e-01
 c1bf                                   6      0.0000       0.00000       A     3.31466e-01     4.12795e-01
 c2bf                                   6      0.0000       0.00000       A     3.31405e-01     4.12348e-01
 c3bf                                   6      0.0000       0.00000       A     3.31564e-01     4.12490e-01
 c4bf                                   6      0.0000       0.00000       A     3.31516e-01     4.12070e-01
 c5bf                                   6      0.0000       0.00000       A     3.31555e-01     4.12268e-01
 n6bf                                   7      0.0000       0.00000       A     3.20413e-01     8.53407e-01
 n7bf                                   7      0.0000       0.00000       A     3.38370e-01     3.92979e-01
 c8bf                                   6      0.0000       0.00000       A     3.31620e-01     4.14723e-01
 c9bf                                   6      0.0000       0.00000       A     3.31059e-01     4.13664e-01
 n10bf                                  7      0.0000       0.00000       A     3.20376e-01     8.55899e-01
 c11bf                                  6      0.0000       0.00000       A     3.31306e-01     4.11917e-01
 c12bf                                  6      0.0000       0.00000       A     3.31510e-01     4.13055e-01
 c13bf                                  6      0.0000       0.00000       A     3.31590e-01     4.12179e-01
 c14bf                                  6      0.0000       0.00000       A     3.31457e-01     4.13497e-01
 c15bf                                  6      0.0000       0.00000       A     3.31456e-01     4.14408e-01
 c16bf                                  6      0.0000       0.00000       A     3.31385e-01     4.12455e-01
 c17bf                                  6      0.0000       0.00000       A     3.31403e-01     4.13537e-01
 c18bf                                  6      0.0000       0.00000       A     3.39680e-01     4.51466e-01
 n19bf                                  7      0.0000       0.00000       A     2.58565e-01     1.06457e+01
 c20bf                                  6      0.0000       0.00000       A     3.39803e-01     4.50476e-01
 c21bf                                  6      0.0000       0.00000       A     3.39660e-01     4.50650e-01
 c22bf                                  6      0.0000       0.00000       A     3.40007e-01     4.50856e-01
 c23bf                                  6      0.0000       0.00000       A     3.39660e-01     4.50650e-01
 c24bf                                  6      0.0000       0.00000       A     3.39803e-01     4.50476e-01
 c25bf                                  6      0.0000       0.00000       A     3.31345e-01     4.11599e-01
 c26bf                                  6      0.0000       0.00000       A     3.31587e-01     4.13106e-01
 n27bf                                  7      0.0000       0.00000       A     3.38330e-01     3.93461e-01
 n28bf                                  7      0.0000       0.00000       A     3.20468e-01     8.56400e-01
 c29bf                                  6      0.0000       0.00000       A     3.31504e-01     4.11380e-01
 h30bf                                  1      0.0000       0.00000       A     2.62568e-01     6.73717e-02
 h31bf                                  1      0.0000       0.00000       A     2.62499e-01     6.76079e-02
 h32bf                                  1      0.0000       0.00000       A     2.62575e-01     6.68514e-02
 h33bf                                  1      0.0000       0.00000       A     1.10662e-01     4.14451e-02
 h34bf                                  1      0.0000       0.00000       A     1.10899e-01     4.15233e-02
 h35bf                                  1      0.0000       0.00000       A     2.62647e-01     6.66471e-02
 h36bf                                  1      0.0000       0.00000       A     2.62485e-01     6.72408e-02
 h37bf                                  1      0.0000       0.00000       A     2.62648e-01     6.74100e-02
 h38bf                                  1      0.0000       0.00000       A     2.62452e-01     6.78776e-02
 h39bf                                  1      0.0000       0.00000       A     1.87833e-01     8.63729e-02
 h40bf                                  1      0.0000       0.00000       A     1.87833e-01     8.63729e-02
 h41bf                                  1      0.0000       0.00000       A     1.10702e-01     4.18154e-02
 h42bf                                  1      0.0000       0.00000       A     1.88382e-01     8.65995e-02
 h43bf                                  1      0.0000       0.00000       A     1.88382e-01     8.65995e-02
 h44bf                                  1      0.0000       0.00000       A     2.59967e-01     8.84542e-02
 h45bf                                  1      0.0000       0.00000       A     2.59967e-01     8.84542e-02
 h46bf                                  1      0.0000       0.00000       A     2.60071e-01     8.65532e-02
 h47bf                                  1      0.0000       0.00000       A     2.60071e-01     8.65532e-02
 h48bf                                  1      0.0000       0.00000       A     2.59967e-01     8.84542e-02
 h49bf                                  1      0.0000       0.00000       A     2.59967e-01     8.84542e-02
 h50bf                                  1      0.0000       0.00000       A     1.88382e-01     8.65995e-02
 h51bf                                  1      0.0000       0.00000       A     1.88382e-01     8.65995e-02
 h52bf                                  1      0.0000       0.00000       A     2.53903e-01     6.68641e-02
 h53bf                                  1      0.0000       0.00000       A     1.10761e-01     4.01986e-02
 h54bf                                  1      0.0000       0.00000       A     2.53748e-01     6.71004e-02

[ moleculetype ]
;name             nrexcl
 11_docked             3

[ atoms ]
;       nr            type      resi   res      atom      cgnr      charge          mass ; qtot
         1            c0bf         1   UNL        c0         1    -0.14269       12.0110 ; qtot   -0.143
         2            c1bf         1   UNL        c1         2     0.04774       12.0110 ; qtot   -0.095
         3            c2bf         1   UNL        c2         3    -0.14289       12.0110 ; qtot   -0.238
         4            c3bf         1   UNL        c3         4    -0.02782       12.0110 ; qtot   -0.266
         5            c4bf         1   UNL        c4         5    -0.21218       12.0110 ; qtot   -0.478
         6            c5bf         1   UNL        c5         6    -0.01178       12.0110 ; qtot   -0.490
         7            n6bf         1   UNL        n6         7    -0.07117       14.0070 ; qtot   -0.561
         8            n7bf         1   UNL        n7         8    -0.50860       14.0070 ; qtot   -1.069
         9            c8bf         1   UNL        c8         9     0.42067       12.0110 ; qtot   -0.649
        10            c9bf         1   UNL        c9        10    -0.09417       12.0110 ; qtot   -0.743
        11           n10bf         1   UNL       n10        11    -0.22773       14.0070 ; qtot   -0.971
        12           c11bf         1   UNL       c11        12    -0.19556       12.0110 ; qtot   -1.166
        13           c12bf         1   UNL       c12        13    -0.10699       12.0110 ; qtot   -1.273
        14           c13bf         1   UNL       c13        14    -0.00399       12.0110 ; qtot   -1.277
        15           c14bf         1   UNL       c14        15    -0.10608       12.0110 ; qtot   -1.383
        16           c15bf         1   UNL       c15        16    -0.06975       12.0110 ; qtot   -1.453
        17           c16bf         1   UNL       c16        17    -0.21681       12.0110 ; qtot   -1.670
        18           c17bf         1   UNL       c17        18     0.00617       12.0110 ; qtot   -1.664
        19           c18bf         1   UNL       c18        19     0.19074       12.0110 ; qtot   -1.473
        20           n19bf         1   UNL       n19        20    -0.68619       14.0070 ; qtot   -2.159
        21           c20bf         1   UNL       c20        21     0.11169       12.0110 ; qtot   -2.047
        22           c21bf         1   UNL       c21        22    -0.10586       12.0110 ; qtot   -2.153
        23           c22bf         1   UNL       c22        23    -0.08859       12.0110 ; qtot   -2.242
        24           c23bf         1   UNL       c23        24    -0.10586       12.0110 ; qtot   -2.348
        25           c24bf         1   UNL       c24        25     0.11169       12.0110 ; qtot   -2.236
        26           c25bf         1   UNL       c25        26    -0.16461       12.0110 ; qtot   -2.401
        27           c26bf         1   UNL       c26        27     0.25070       12.0110 ; qtot   -2.150
        28           n27bf         1   UNL       n27        28    -0.51564       14.0070 ; qtot   -2.666
        29           n28bf         1   UNL       n28        29    -0.02530       14.0070 ; qtot   -2.691
        30           c29bf         1   UNL       c29        30    -0.14598       12.0110 ; qtot   -2.837
        31           h30bf         1   UNL       h30        31     0.11740        1.0080 ; qtot   -2.719
        32           h31bf         1   UNL       h31        32     0.12598        1.0080 ; qtot   -2.593
        33           h32bf         1   UNL       h32        33     0.12733        1.0080 ; qtot   -2.466
        34           h33bf         1   UNL       h33        34     0.37953        1.0080 ; qtot   -2.087
        35           h34bf         1   UNL       h34        35     0.35537        1.0080 ; qtot   -1.731
        36           h35bf         1   UNL       h35        36     0.20407        1.0080 ; qtot   -1.527
        37           h36bf         1   UNL       h36        37     0.13079        1.0080 ; qtot   -1.396
        38           h37bf         1   UNL       h37        38     0.12413        1.0080 ; qtot   -1.272
        39           h38bf         1   UNL       h38        39     0.12618        1.0080 ; qtot   -1.146
        40           h39bf         1   UNL       h39        40     0.09866        1.0080 ; qtot   -1.047
        41           h40bf         1   UNL       h40        41     0.09866        1.0080 ; qtot   -0.949
        42           h41bf         1   UNL       h41        42     0.50046        1.0080 ; qtot   -0.448
        43           h42bf         1   UNL       h42        43     0.09543        1.0080 ; qtot   -0.353
        44           h43bf         1   UNL       h43        44     0.09543        1.0080 ; qtot   -0.257
        45           h44bf         1   UNL       h44        45     0.08552        1.0080 ; qtot   -0.172
        46           h45bf         1   UNL       h45        46     0.08552        1.0080 ; qtot   -0.086
        47           h46bf         1   UNL       h46        47     0.07775        1.0080 ; qtot   -0.009
        48           h47bf         1   UNL       h47        48     0.07775        1.0080 ; qtot    0.069
        49           h48bf         1   UNL       h48        49     0.08552        1.0080 ; qtot    0.155
        50           h49bf         1   UNL       h49        50     0.08552        1.0080 ; qtot    0.240
        51           h50bf         1   UNL       h50        51     0.09543        1.0080 ; qtot    0.336
        52           h51bf         1   UNL       h51        52     0.09543        1.0080 ; qtot    0.431
        53           h52bf         1   UNL       h52        53     0.03986        1.0080 ; qtot    0.471
        54           h53bf         1   UNL       h53        54     0.37266        1.0080 ; qtot    0.844
        55           h54bf         1   UNL       h54        55     0.15646        1.0080 ; qtot    1.000

[ bonds ]
;       ai        aj funct               r               k
         1         2     1        0.142690   249019.044238
         1         4     1        0.138673   340536.740625
         1        31     1        0.108528   319476.873877
         2         3     1        0.139653   306114.351563
         2        26     1        0.146927   234367.893848
         3         6     1        0.140237   303770.785498
         3        32     1        0.108520   320439.699512
         4         5     1        0.141031   296863.840137
         4        33     1        0.108495   322124.127246
         5         6     1        0.141888   248938.040527
         5         9     1        0.144249   224241.714941
         6         7     1        0.137201   282844.528906
         7         8     1        0.135674   254856.393311
         7        34     1        0.100958   433953.223242
         8         9     1        0.133497   344504.952051
         9        10     1        0.145193   253459.998633
        10        11     1        0.139180   262347.346826
        10        12     1        0.138454   347289.441846
        11        14     1        0.138201   275860.155029
        11        35     1        0.101035   429177.375195
        12        13     1        0.143536   250057.076660
        12        36     1        0.108050   337425.503516
        13        14     1        0.142955   237535.976562
        13        18     1        0.140443   303438.496631
        14        15     1        0.140156   305366.522852
        15        16     1        0.138900   337804.831738
        15        37     1        0.108539   321997.667480
        16        17     1        0.141819   266033.143359
        16        38     1        0.108652   318090.208838
        17        18     1        0.139677   302830.509131
        17        19     1        0.149908   204446.279858
        18        39     1        0.108666   317086.370605
        19        20     1        0.153197   111198.010181
        19        40     1        0.109096   309012.379346
        19        41     1        0.109096   309012.379346
        20        21     1        0.152145   128071.897803
        20        25     1        0.152145   128071.897803
        20        42     1        0.102494   385069.041455
        21        22     1        0.152748   189250.486768
        21        43     1        0.109106   309880.411230
        21        44     1        0.109106   309880.411230
        22        23     1        0.153779   184046.126025
        22        45     1        0.109388   302488.362939
        22        46     1        0.109388   302488.362939
        23        24     1        0.153779   184046.126025
        23        47     1        0.109386   302361.315820
        23        48     1        0.109386   302361.315820
        24        25     1        0.152748   189250.486768
        24        49     1        0.109388   302488.362939
        24        50     1        0.109388   302488.362939
        25        51     1        0.109106   309880.436768
        25        52     1        0.109106   309880.436768
        26        27     1        0.142594   254753.070166
        26        30     1        0.139301   324832.388770
        27        28     1        0.133293   360360.611279
        27        53     1        0.108231   332689.467822
        28        29     1        0.135219   256502.157861
        29        30     1        0.135933   320655.590234
        29        54     1        0.101033   433131.745508
        30        55     1        0.108032   340157.769922

[ angles ]
;       ai        aj        ak funct           theta             cth
         1         2         3     1      119.465286      579.183173
         1         2        26     1      119.908325      569.671876
         1         4         5     1      118.848328      671.295846
         1         4        33     1      120.385864      424.313309
         2         1         4     1      122.165306      654.517773
         2         1        31     1      118.825058      453.708310
         2         3         6     1      117.911095      747.584385
         2         3        32     1      120.880859      427.337286
         2        26        27     1      128.428802      536.286256
         2        26        30     1      127.822594      525.134839
         3         2        26     1      120.573502      431.741799
         3         6         5     1      122.910912      642.735653
         3         6         7     1      131.457489      460.493137
         4         1        31     1      119.184898      435.301991
         4         5         6     1      118.666458      699.853995
         4         5         9     1      136.491928      473.672360
         5         4        33     1      121.025253      436.214273
         5         6         7     1      105.792870      167.360000
         5         9         8     1      110.611916      350.554540
         5         9        10     1      129.210236      400.211641
         6         3        32     1      121.262131      437.154772
         6         5         9     1      104.632042      427.813681
         6         7         8     1      112.709862      422.513230
         6         7        34     1      128.459122      379.676485
         7         8         9     1      106.529152      587.304995
         8         7        34     1      118.725540      478.396534
         8         9        10     1      120.099777      559.250884
         9        10        11     1      120.414673      507.245551
         9        10        12     1      131.034760      447.502696
        10        11        14     1      109.440186      409.573864
        10        11        35     1      123.215820      379.022543
        10        12        13     1      107.464355      383.437239
        10        12        36     1      125.246742      393.800518
        11        10        12     1      108.673904      167.360000
        11        14        13     1      107.344810      298.221055
        11        14        15     1      130.709946      469.443893
        12        13        14     1      106.916115      360.114421
        12        13        18     1      134.237762      411.179095
        13        12        36     1      127.224655      385.462587
        13        14        15     1      122.047226      612.367944
        13        18        17     1      119.376549      655.622253
        13        18        39     1      119.879227      440.646461
        14        11        35     1      125.853867      394.838697
        14        13        18     1      118.799820      745.865546
        14        15        16     1      117.639648      794.148814
        14        15        37     1      121.576096      439.900650
        15        16        17     1      121.524864      583.498880
        15        16        38     1      118.960594      421.153092
        16        15        37     1      120.828659      425.915061
        16        17        18     1      120.372581      616.559733
        16        17        19     1      119.635887      531.878742
        17        16        38     1      119.626991      401.380985
        17        18        39     1      120.674217      396.460974
        17        19        20     1      111.410690      569.172498
        17        19        40     1      112.377319      462.887783
        17        19        41     1      112.377319      462.887783
        18        17        19     1      120.018288      462.537478
        19        20        21     1      112.704857      588.015118
        19        20        25     1      112.704857      588.015118
        19        20        42     1      105.970398      490.093296
        20        19        40     1      105.727821      544.833079
        20        19        41     1      105.727821      544.833079
        20        21        22     1      110.669518      713.348889
        20        21        43     1      106.583885      517.691410
        20        21        44     1      106.583885      517.691410
        20        25        24     1      110.669518      713.348889
        20        25        51     1      106.583885      517.691410
        20        25        52     1      106.583885      517.691410
        21        20        25     1      111.317604      604.395259
        21        20        42     1      106.781754      499.371087
        21        22        23     1      111.364792      654.236737
        21        22        45     1      108.713943      507.855632
        21        22        46     1      108.713943      507.855632
        22        21        43     1      112.117599      482.200988
        22        21        44     1      112.117599      482.200988
        22        23        24     1      110.735153      610.700243
        22        23        47     1      109.863098      503.206027
        22        23        48     1      109.863098      503.206027
        23        22        45     1      110.716568      488.430479
        23        22        46     1      110.716568      488.430479
        23        24        25     1      111.364792      654.236737
        23        24        49     1      110.716568      488.430479
        23        24        50     1      110.716568      488.430479
        24        23        47     1      109.863098      503.206027
        24        23        48     1      109.863098      503.206027
        24        25        51     1      112.117599      482.200988
        24        25        52     1      112.117599      482.200988
        25        20        42     1      106.781754      499.371087
        25        24        49     1      108.713943      507.855632
        25        24        50     1      108.713943      507.855632
        26        27        28     1      112.241135      242.377605
        26        27        53     1      128.449554      361.432774
        26        30        29     1      106.677246      167.360000
        26        30        55     1      131.569855      331.805514
        27        26        30     1      103.604088      385.518737
        27        28        29     1      104.258377      564.420681
        28        27        53     1      119.335732      389.913291
        28        29        30     1      113.248856      225.287900
        28        29        54     1      118.854225      484.564767
        29        30        55     1      121.965126      478.105762
        30        29        54     1      127.991409      383.518767
        40        19        41     1      108.533302      349.262713
        43        21        44     1      108.492310      346.342034
        45        22        46     1      106.356018      362.065967
        47        23        48     1      106.540710      364.941732
        49        24        50     1      106.356018      362.065967
        51        25        52     1      108.492310      346.342066

[ dihedrals ] ; propers for gromacs 4.5 or higher, use funct 9
;       ai        aj        ak        al funct           phase               k        pn
         1         2         3         6     9        0.000000       -0.223762         1
         1         2         3         6     9      180.000000       20.848983         2
         1         2         3         6     9        0.000000       -1.730751         3
         1         2         3         6     9      180.000000       -0.521954         4
         1         2         3        32     9        0.000000        0.041070         1
         1         2         3        32     9      180.000000       14.088885         2
         1         2         3        32     9        0.000000       -0.445489         3
         1         2         3        32     9      180.000000        0.093462         4
         1         2        26        27     9        0.000000       -0.059486         1
         1         2        26        27     9      180.000000        2.250079         2
         1         2        26        27     9        0.000000       -0.084318         3
         1         2        26        27     9      180.000000       -0.201767         4
         1         2        26        30     9        0.000000        0.202600         1
         1         2        26        30     9      180.000000        2.606025         2
         1         2        26        30     9        0.000000        0.020875         3
         1         2        26        30     9      180.000000       -0.234774         4
         1         4         5         6     9        0.000000        0.096243         1
         1         4         5         6     9      180.000000       19.820141         2
         1         4         5         6     9        0.000000       -2.377727         3
         1         4         5         6     9      180.000000       -0.463982         4
         1         4         5         9     9        0.000000       -0.064397         1
         1         4         5         9     9      180.000000       12.119103         2
         1         4         5         9     9        0.000000       -0.425376         3
         1         4         5         9     9      180.000000        0.012273         4
         2         1         4         5     9        0.000000        0.004277         1
         2         1         4         5     9      180.000000       20.617276         2
         2         1         4         5     9        0.000000       -1.675541         3
         2         1         4         5     9      180.000000       -0.385216         4
         2         1         4        33     9        0.000000       -0.020511         1
         2         1         4        33     9      180.000000       15.333180         2
         2         1         4        33     9        0.000000       -0.393386         3
         2         1         4        33     9      180.000000        0.144965         4
         2         3         6         5     9        0.000000       -0.144216         1
         2         3         6         5     9      180.000000       16.352774         2
         2         3         6         5     9        0.000000       -1.617228         3
         2         3         6         5     9      180.000000       -0.331583         4
         2         3         6         7     9        0.000000        0.223591         1
         2         3         6         7     9      180.000000       14.429686         2
         2         3         6         7     9        0.000000       -0.181143         3
         2         3         6         7     9      180.000000       -0.275566         4
         2        26        27        28     9        0.000000        0.361848         1
         2        26        27        28     9      180.000000       14.888308         2
         2        26        27        28     9        0.000000       -0.381927         3
         2        26        27        28     9      180.000000       -0.941910         4
         2        26        27        53     9        0.000000       -0.218623         1
         2        26        27        53     9      180.000000       10.406832         2
         2        26        27        53     9        0.000000        0.011585         3
         2        26        27        53     9      180.000000        0.016607         4
         2        26        30        29     9        0.000000        0.113614         1
         2        26        30        29     9      180.000000       17.299175         2
         2        26        30        29     9        0.000000       -0.395682         3
         2        26        30        29     9      180.000000       -0.926909         4
         2        26        30        55     9        0.000000       -0.117729         1
         2        26        30        55     9      180.000000       11.013563         2
         2        26        30        55     9        0.000000       -0.076050         3
         2        26        30        55     9      180.000000       -0.034783         4
         3         2         1         4     9        0.000000       -0.088398         1
         3         2         1         4     9      180.000000       16.114259         2
         3         2         1         4     9        0.000000       -1.113207         3
         3         2         1         4     9      180.000000       -0.359072         4
         3         2         1        31     9        0.000000        0.000063         1
         3         2         1        31     9      180.000000       12.402774         2
         3         2         1        31     9        0.000000       -0.525556         3
         3         2         1        31     9      180.000000        0.095856         4
         3         2        26        27     9        0.000000       -0.171721         1
         3         2        26        27     9      180.000000        2.126343         2
         3         2        26        27     9        0.000000       -0.058343         3
         3         2        26        27     9      180.000000       -0.234942         4
         3         2        26        30     9        0.000000        0.360254         1
         3         2        26        30     9      180.000000        2.466703         2
         3         2        26        30     9        0.000000        0.212678         3
         3         2        26        30     9      180.000000       -0.302233         4
         3         6         5         4     9        0.000000       -0.294549         1
         3         6         5         4     9      180.000000        9.515486         2
         3         6         5         4     9        0.000000       -1.700213         3
         3         6         5         4     9      180.000000        0.064667         4
         3         6         5         9     9        0.000000       -0.111735         1
         3         6         5         9     9      180.000000       10.415625         2
         3         6         5         9     9        0.000000       -1.949799         3
         3         6         5         9     9      180.000000       -0.017422         4
         3         6         7         8     9        0.000000        1.102552         1
         3         6         7         8     9      180.000000        4.937641         2
         3         6         7         8     9        0.000000        0.224061         3
         3         6         7         8     9      180.000000       -0.033994         4
         3         6         7        34     9        0.000000       -0.656709         1
         3         6         7        34     9      180.000000        1.335445         2
         3         6         7        34     9        0.000000       -0.036460         3
         3         6         7        34     9      180.000000       -0.067791         4
         4         1         2        26     9        0.000000        0.197330         1
         4         1         2        26     9      180.000000       15.028642         2
         4         1         2        26     9        0.000000       -0.133986         3
         4         1         2        26     9      180.000000       -0.309425         4
         4         5         6         7     9        0.000000        0.417244         1
         4         5         6         7     9      180.000000        9.575059         2
         4         5         6         7     9        0.000000       -1.762338         3
         4         5         6         7     9      180.000000        0.065841         4
         4         5         9         8     9        0.000000       -0.090917         1
         4         5         9         8     9      180.000000        4.601422         2
         4         5         9         8     9        0.000000       -1.056896         3
         4         5         9         8     9      180.000000        0.124770         4
         4         5         9        10     9        0.000000        0.181129         1
         4         5         9        10     9      180.000000        5.920412         2
         4         5         9        10     9        0.000000        0.454791         3
         4         5         9        10     9      180.000000       -0.075157         4
         5         4         1        31     9        0.000000        0.140798         1
         5         4         1        31     9      180.000000       16.586348         2
         5         4         1        31     9        0.000000       -0.374678         3
         5         4         1        31     9      180.000000        0.015089         4
         5         6         3        32     9        0.000000        0.090612         1
         5         6         3        32     9      180.000000       11.701441         2
         5         6         3        32     9        0.000000       -0.243154         3
         5         6         3        32     9      180.000000        0.011464         4
         5         6         7         8     9        0.000000        0.552178         1
         5         6         7         8     9      180.000000       23.528259         2
         5         6         7         8     9        0.000000       -4.702949         3
         5         6         7         8     9      180.000000       -1.158268         4
         5         6         7        34     9        0.000000        0.554766         1
         5         6         7        34     9      180.000000        1.385599         2
         5         6         7        34     9        0.000000        0.413487         3
         5         6         7        34     9      180.000000        0.047855         4
         5         9         8         7     9        0.000000       -0.418552         1
         5         9         8         7     9      180.000000       37.593522         2
         5         9         8         7     9        0.000000       -4.111731         3
         5         9         8         7     9      180.000000        0.014899         4
         5         9        10        11     9        0.000000        0.806903         1
         5         9        10        11     9      180.000000        3.026526         2
         5         9        10        11     9        0.000000        0.344460         3
         5         9        10        11     9      180.000000       -0.063225         4
         5         9        10        12     9        0.000000       -0.066838         1
         5         9        10        12     9      180.000000        2.238543         2
         5         9        10        12     9        0.000000       -0.182816         3
         5         9        10        12     9      180.000000       -0.102441         4
         6         3         2        26     9        0.000000        0.291739         1
         6         3         2        26     9      180.000000       20.824878         2
         6         3         2        26     9        0.000000        0.155203         3
         6         3         2        26     9      180.000000       -1.083007         4
         6         5         4        33     9        0.000000        0.221940         1
         6         5         4        33     9      180.000000       13.471706         2
         6         5         4        33     9        0.000000       -0.389440         3
         6         5         4        33     9      180.000000       -0.037976         4
         6         5         9         8     9        0.000000       -0.456844         1
         6         5         9         8     9      180.000000       30.016857         2
         6         5         9         8     9        0.000000       -9.800550         3
         6         5         9         8     9      180.000000       -0.090216         4
         6         5         9        10     9        0.000000        1.068522         1
         6         5         9        10     9      180.000000       16.782260         2
         6         5         9        10     9        0.000000       -0.218539         3
         6         5         9        10     9      180.000000       -1.072581         4
         6         7         8         9     9        0.000000       -0.016131         1
         6         7         8         9     9      180.000000       21.342242         2
         6         7         8         9     9        0.000000       -2.148251         3
         6         7         8         9     9      180.000000       -0.957563         4
         7         6         3        32     9        0.000000       -0.019142         1
         7         6         3        32     9      180.000000       10.629391         2
         7         6         3        32     9        0.000000        0.038295         3
         7         6         3        32     9      180.000000        0.087131         4
         7         6         5         9     9        0.000000        0.262721         1
         7         6         5         9     9      180.000000       16.945877         2
         7         6         5         9     9        0.000000       -5.267613         3
         7         6         5         9     9      180.000000       -0.325248         4
         7         8         9        10     9        0.000000        0.810242         1
         7         8         9        10     9      180.000000       31.756533         2
         7         8         9        10     9        0.000000        1.337243         3
         7         8         9        10     9      180.000000       -1.207537         4
         8         9        10        11     9        0.000000        0.539428         1
         8         9        10        11     9      180.000000        3.785728         2
         8         9        10        11     9        0.000000       -0.325839         3
         8         9        10        11     9      180.000000        0.116329         4
         8         9        10        12     9        0.000000        0.657073         1
         8         9        10        12     9      180.000000        2.918871         2
         8         9        10        12     9        0.000000        0.344699         3
         8         9        10        12     9      180.000000       -0.118837         4
         9         5         4        33     9        0.000000        0.022379         1
         9         5         4        33     9      180.000000        9.588113         2
         9         5         4        33     9        0.000000       -0.005947         3
         9         5         4        33     9      180.000000        0.114198         4
         9         8         7        34     9        0.000000        1.778084         1
         9         8         7        34     9      180.000000        4.278802         2
         9         8         7        34     9        0.000000        0.405985         3
         9         8         7        34     9      180.000000       -0.125475         4
         9        10        11        14     9        0.000000        1.016913         1
         9        10        11        14     9      180.000000       10.893483         2
         9        10        11        14     9        0.000000        0.597977         3
         9        10        11        14     9      180.000000       -0.510303         4
         9        10        11        35     9        0.000000       -0.731223         1
         9        10        11        35     9      180.000000        1.551980         2
         9        10        11        35     9        0.000000       -0.019945         3
         9        10        11        35     9      180.000000       -0.089541         4
         9        10        12        13     9        0.000000        0.330131         1
         9        10        12        13     9      180.000000       19.922010         2
         9        10        12        13     9        0.000000       -0.051986         3
         9        10        12        13     9      180.000000       -1.494159         4
         9        10        12        36     9        0.000000       -0.093761         1
         9        10        12        36     9      180.000000       12.711677         2
         9        10        12        36     9        0.000000       -0.290686         3
         9        10        12        36     9      180.000000       -0.047875         4
        10        11        14        13     9        0.000000       -0.265782         1
        10        11        14        13     9      180.000000       18.548794         2
        10        11        14        13     9        0.000000       -3.718642         3
        10        11        14        13     9      180.000000       -0.568234         4
        10        11        14        15     9        0.000000        0.342725         1
        10        11        14        15     9      180.000000        3.578985         2
        10        11        14        15     9        0.000000        0.671999         3
        10        11        14        15     9      180.000000        0.060759         4
        10        12        13        14     9        0.000000       -0.189760         1
        10        12        13        14     9      180.000000       26.545747         2
        10        12        13        14     9        0.000000       -7.734337         3
        10        12        13        14     9      180.000000       -0.101177         4
        10        12        13        18     9        0.000000        0.333904         1
        10        12        13        18     9      180.000000        4.966556         2
        10        12        13        18     9        0.000000       -0.021350         3
        10        12        13        18     9      180.000000       -0.127696         4
        11        10        12        13     9        0.000000       -0.384049         1
        11        10        12        13     9      180.000000       30.847781         2
        11        10        12        13     9        0.000000       -5.882406         3
        11        10        12        13     9      180.000000       -0.738096         4
        11        10        12        36     9        0.000000       -0.208855         1
        11        10        12        36     9      180.000000       15.439502         2
        11        10        12        36     9        0.000000       -0.451777         3
        11        10        12        36     9      180.000000       -0.226957         4
        11        14        13        12     9        0.000000        0.336582         1
        11        14        13        12     9      180.000000       18.386561         2
        11        14        13        12     9        0.000000       -5.273211         3
        11        14        13        12     9      180.000000       -0.354630         4
        11        14        13        18     9        0.000000        0.315759         1
        11        14        13        18     9      180.000000       10.854582         2
        11        14        13        18     9        0.000000       -1.621106         3
        11        14        13        18     9      180.000000       -0.113402         4
        11        14        15        16     9        0.000000        0.233748         1
        11        14        15        16     9      180.000000       15.245659         2
        11        14        15        16     9        0.000000       -0.036583         3
        11        14        15        16     9      180.000000       -0.222307         4
        11        14        15        37     9        0.000000       -0.141852         1
        11        14        15        37     9      180.000000       11.257604         2
        11        14        15        37     9        0.000000       -0.030213         3
        11        14        15        37     9      180.000000        0.130882         4
        12        10        11        14     9        0.000000        0.063635         1
        12        10        11        14     9      180.000000       18.838630         2
        12        10        11        14     9        0.000000       -5.407668         3
        12        10        11        14     9      180.000000       -0.541921         4
        12        10        11        35     9        0.000000       -1.128438         1
        12        10        11        35     9      180.000000        2.375408         2
        12        10        11        35     9        0.000000        0.273838         3
        12        10        11        35     9      180.000000        0.242639         4
        12        13        14        15     9        0.000000        0.026380         1
        12        13        14        15     9      180.000000        9.740390         2
        12        13        14        15     9        0.000000       -1.537542         3
        12        13        14        15     9      180.000000        0.038336         4
        12        13        18        17     9        0.000000        0.232595         1
        12        13        18        17     9      180.000000       14.006439         2
        12        13        18        17     9        0.000000       -0.477713         3
        12        13        18        17     9      180.000000       -0.321864         4
        12        13        18        39     9        0.000000        0.068439         1
        12        13        18        39     9      180.000000       10.607843         2
        12        13        18        39     9        0.000000       -0.059897         3
        12        13        18        39     9      180.000000        0.061277         4
        13        14        11        35     9        0.000000        0.060217         1
        13        14        11        35     9      180.000000        1.233275         2
        13        14        11        35     9        0.000000        0.211642         3
        13        14        11        35     9      180.000000        0.041954         4
        13        14        15        16     9        0.000000       -0.045533         1
        13        14        15        16     9      180.000000       17.207435         2
        13        14        15        16     9        0.000000       -1.559634         3
        13        14        15        16     9      180.000000       -0.300273         4
        13        14        15        37     9        0.000000        0.165080         1
        13        14        15        37     9      180.000000       11.983177         2
        13        14        15        37     9        0.000000       -0.139937         3
        13        14        15        37     9      180.000000       -0.000811         4
        13        18        17        16     9        0.000000       -0.037501         1
        13        18        17        16     9      180.000000       20.636420         2
        13        18        17        16     9        0.000000       -1.546996         3
        13        18        17        16     9      180.000000       -0.599422         4
        13        18        17        19     9        0.000000        0.265536         1
        13        18        17        19     9      180.000000       17.137058         2
        13        18        17        19     9        0.000000        0.100863         3
        13        18        17        19     9      180.000000       -0.498016         4
        14        13        12        36     9        0.000000        1.031704         1
        14        13        12        36     9      180.000000       11.253080         2
        14        13        12        36     9        0.000000        0.319281         3
        14        13        12        36     9      180.000000       -0.385662         4
        14        13        18        17     9        0.000000       -0.081543         1
        14        13        18        17     9      180.000000       19.370271         2
        14        13        18        17     9        0.000000       -1.673895         3
        14        13        18        17     9      180.000000       -0.550291         4
        14        13        18        39     9        0.000000        0.420282         1
        14        13        18        39     9      180.000000       13.608947         2
        14        13        18        39     9        0.000000       -0.137859         3
        14        13        18        39     9      180.000000       -0.185992         4
        14        15        16        17     9        0.000000       -0.102544         1
        14        15        16        17     9      180.000000       21.940856         2
        14        15        16        17     9        0.000000       -1.646905         3
        14        15        16        17     9      180.000000       -0.626166         4
        14        15        16        38     9        0.000000        0.047989         1
        14        15        16        38     9      180.000000       17.069876         2
        14        15        16        38     9        0.000000       -0.598388         3
        14        15        16        38     9      180.000000       -0.210061         4
        15        14        11        35     9        0.000000       -0.258692         1
        15        14        11        35     9      180.000000        0.808008         2
        15        14        11        35     9        0.000000        0.218709         3
        15        14        11        35     9      180.000000       -0.061191         4
        15        14        13        18     9        0.000000       -0.011740         1
        15        14        13        18     9      180.000000       10.681982         2
        15        14        13        18     9        0.000000       -1.107452         3
        15        14        13        18     9      180.000000       -0.059133         4
        15        16        17        18     9        0.000000        0.118539         1
        15        16        17        18     9      180.000000       18.060670         2
        15        16        17        18     9        0.000000       -1.477352         3
        15        16        17        18     9      180.000000       -0.395645         4
        15        16        17        19     9        0.000000        0.415498         1
        15        16        17        19     9      180.000000       13.920626         2
        15        16        17        19     9        0.000000       -0.017355         3
        15        16        17        19     9      180.000000       -0.065278         4
        16        17        18        39     9        0.000000        0.135532         1
        16        17        18        39     9      180.000000       14.395434         2
        16        17        18        39     9        0.000000       -0.566527         3
        16        17        18        39     9      180.000000       -0.066211         4
        16        17        19        20     9        0.000000        0.549497         1
        16        17        19        20     9      180.000000       -1.449968         2
        16        17        19        20     9        0.000000        0.395881         3
        16        17        19        20     9      180.000000        0.044452         4
        16        17        19        40     9        0.000000       -0.029204         1
        16        17        19        40     9      180.000000        0.223046         2
        16        17        19        40     9        0.000000        0.195529         3
        16        17        19        40     9      180.000000       -0.025331         4
        16        17        19        41     9        0.000000       -0.029204         1
        16        17        19        41     9      180.000000        0.223046         2
        16        17        19        41     9        0.000000        0.195529         3
        16        17        19        41     9      180.000000       -0.025331         4
        17        16        15        37     9        0.000000        0.034577         1
        17        16        15        37     9      180.000000       15.336710         2
        17        16        15        37     9        0.000000       -0.493478         3
        17        16        15        37     9      180.000000        0.031911         4
        17        19        20        21     9        0.000000       -0.125206         1
        17        19        20        21     9      180.000000        0.007019         2
        17        19        20        21     9        0.000000        1.047824         3
        17        19        20        21     9      180.000000        0.037227         4
        17        19        20        25     9        0.000000       -0.125206         1
        17        19        20        25     9      180.000000        0.007019         2
        17        19        20        25     9        0.000000        1.047824         3
        17        19        20        25     9      180.000000        0.037227         4
        17        19        20        42     9        0.000000        1.655144         1
        17        19        20        42     9      180.000000       -0.044734         2
        17        19        20        42     9        0.000000        0.617037         3
        17        19        20        42     9      180.000000       -0.103721         4
        18        13        12        36     9        0.000000       -0.483131         1
        18        13        12        36     9      180.000000        4.503046         2
        18        13        12        36     9        0.000000       -0.221609         3
        18        13        12        36     9      180.000000        0.120485         4
        18        17        16        38     9        0.000000        0.109962         1
        18        17        16        38     9      180.000000       13.524185         2
        18        17        16        38     9        0.000000       -0.741933         3
        18        17        16        38     9      180.000000        0.050029         4
        18        17        19        20     9        0.000000       -0.285649         1
        18        17        19        20     9      180.000000       -1.285466         2
        18        17        19        20     9        0.000000        0.178715         3
        18        17        19        20     9      180.000000        0.048292         4
        18        17        19        40     9        0.000000        0.013519         1
        18        17        19        40     9      180.000000        0.170025         2
        18        17        19        40     9        0.000000       -0.029491         3
        18        17        19        40     9      180.000000       -0.045372         4
        18        17        19        41     9        0.000000        0.013519         1
        18        17        19        41     9      180.000000        0.170025         2
        18        17        19        41     9        0.000000       -0.029491         3
        18        17        19        41     9      180.000000       -0.045372         4
        19        17        16        38     9        0.000000       -0.030370         1
        19        17        16        38     9      180.000000       11.438949         2
        19        17        16        38     9        0.000000       -0.465307         3
        19        17        16        38     9      180.000000        0.061061         4
        19        17        18        39     9        0.000000       -0.055057         1
        19        17        18        39     9      180.000000       11.875059         2
        19        17        18        39     9        0.000000       -0.483380         3
        19        17        18        39     9      180.000000        0.115101         4
        19        20        21        22     9        0.000000       -0.167424         1
        19        20        21        22     9      180.000000        0.211122         2
        19        20        21        22     9        0.000000        0.423421         3
        19        20        21        22     9      180.000000        0.080801         4
        19        20        21        43     9        0.000000       -0.030108         1
        19        20        21        43     9      180.000000       -0.018161         2
        19        20        21        43     9        0.000000        0.547066         3
        19        20        21        43     9      180.000000       -0.073417         4
        19        20        21        44     9        0.000000       -0.030108         1
        19        20        21        44     9      180.000000       -0.018161         2
        19        20        21        44     9        0.000000        0.547066         3
        19        20        21        44     9      180.000000       -0.073417         4
        19        20        25        24     9        0.000000       -0.167424         1
        19        20        25        24     9      180.000000        0.211122         2
        19        20        25        24     9        0.000000        0.423421         3
        19        20        25        24     9      180.000000        0.080801         4
        19        20        25        51     9        0.000000       -0.030108         1
        19        20        25        51     9      180.000000       -0.018161         2
        19        20        25        51     9        0.000000        0.547066         3
        19        20        25        51     9      180.000000       -0.073417         4
        19        20        25        52     9        0.000000       -0.030108         1
        19        20        25        52     9      180.000000       -0.018161         2
        19        20        25        52     9        0.000000        0.547066         3
        19        20        25        52     9      180.000000       -0.073417         4
        20        21        22        23     9        0.000000        2.361234         1
        20        21        22        23     9      180.000000       -0.810884         2
        20        21        22        23     9        0.000000        0.415656         3
        20        21        22        23     9      180.000000       -0.090053         4
        20        21        22        45     9        0.000000       -0.040539         1
        20        21        22        45     9      180.000000        0.002388         2
        20        21        22        45     9        0.000000        0.330899         3
        20        21        22        45     9      180.000000       -0.006998         4
        20        21        22        46     9        0.000000       -0.040539         1
        20        21        22        46     9      180.000000        0.002388         2
        20        21        22        46     9        0.000000        0.330899         3
        20        21        22        46     9      180.000000       -0.006998         4
        20        25        24        23     9        0.000000        2.361234         1
        20        25        24        23     9      180.000000       -0.810884         2
        20        25        24        23     9        0.000000        0.415656         3
        20        25        24        23     9      180.000000       -0.090053         4
        20        25        24        49     9        0.000000       -0.040539         1
        20        25        24        49     9      180.000000        0.002388         2
        20        25        24        49     9        0.000000        0.330899         3
        20        25        24        49     9      180.000000       -0.006998         4
        20        25        24        50     9        0.000000       -0.040539         1
        20        25        24        50     9      180.000000        0.002388         2
        20        25        24        50     9        0.000000        0.330899         3
        20        25        24        50     9      180.000000       -0.006998         4
        21        20        19        40     9        0.000000       -0.033109         1
        21        20        19        40     9      180.000000        0.052325         2
        21        20        19        40     9        0.000000        0.803370         3
        21        20        19        40     9      180.000000       -0.026172         4
        21        20        19        41     9        0.000000       -0.033109         1
        21        20        19        41     9      180.000000        0.052325         2
        21        20        19        41     9        0.000000        0.803370         3
        21        20        19        41     9      180.000000       -0.026172         4
        21        20        25        24     9        0.000000        1.197946         1
        21        20        25        24     9      180.000000       -0.864155         2
        21        20        25        24     9        0.000000        0.301044         3
        21        20        25        24     9      180.000000        0.013990         4
        21        20        25        51     9        0.000000       -0.044210         1
        21        20        25        51     9      180.000000        0.072815         2
        21        20        25        51     9        0.000000        0.445484         3
        21        20        25        51     9      180.000000       -0.054902         4
        21        20        25        52     9        0.000000       -0.044210         1
        21        20        25        52     9      180.000000        0.072815         2
        21        20        25        52     9        0.000000        0.445484         3
        21        20        25        52     9      180.000000       -0.054902         4
        21        22        23        24     9        0.000000        0.216913         1
        21        22        23        24     9      180.000000       -0.513401         2
        21        22        23        24     9        0.000000        0.316708         3
        21        22        23        24     9      180.000000        0.032021         4
        21        22        23        47     9        0.000000       -0.049008         1
        21        22        23        47     9      180.000000        0.015482         2
        21        22        23        47     9        0.000000        0.222308         3
        21        22        23        47     9      180.000000       -0.029978         4
        21        22        23        48     9        0.000000       -0.049008         1
        21        22        23        48     9      180.000000        0.015482         2
        21        22        23        48     9        0.000000        0.222308         3
        21        22        23        48     9      180.000000       -0.029978         4
        22        21        20        25     9        0.000000        1.197946         1
        22        21        20        25     9      180.000000       -0.864155         2
        22        21        20        25     9        0.000000        0.301044         3
        22        21        20        25     9      180.000000        0.013990         4
        22        21        20        42     9        0.000000       -0.053865         1
        22        21        20        42     9      180.000000       -0.195077         2
        22        21        20        42     9        0.000000        0.386828         3
        22        21        20        42     9      180.000000        0.036111         4
        22        23        24        25     9        0.000000        0.216913         1
        22        23        24        25     9      180.000000       -0.513401         2
        22        23        24        25     9        0.000000        0.316708         3
        22        23        24        25     9      180.000000        0.032021         4
        22        23        24        49     9        0.000000       -0.013356         1
        22        23        24        49     9      180.000000        0.018224         2
        22        23        24        49     9        0.000000        0.239851         3
        22        23        24        49     9      180.000000       -0.000475         4
        22        23        24        50     9        0.000000       -0.013356         1
        22        23        24        50     9      180.000000        0.018224         2
        22        23        24        50     9        0.000000        0.239851         3
        22        23        24        50     9      180.000000       -0.000475         4
        23        22        21        43     9        0.000000       -0.093091         1
        23        22        21        43     9      180.000000        0.020621         2
        23        22        21        43     9        0.000000        0.421685         3
        23        22        21        43     9      180.000000        0.044448         4
        23        22        21        44     9        0.000000       -0.093091         1
        23        22        21        44     9      180.000000        0.020621         2
        23        22        21        44     9        0.000000        0.421685         3
        23        22        21        44     9      180.000000        0.044448         4
        23        24        25        51     9        0.000000       -0.093091         1
        23        24        25        51     9      180.000000        0.020621         2
        23        24        25        51     9        0.000000        0.421685         3
        23        24        25        51     9      180.000000        0.044448         4
        23        24        25        52     9        0.000000       -0.093091         1
        23        24        25        52     9      180.000000        0.020621         2
        23        24        25        52     9        0.000000        0.421685         3
        23        24        25        52     9      180.000000        0.044448         4
        24        23        22        45     9        0.000000       -0.013356         1
        24        23        22        45     9      180.000000        0.018224         2
        24        23        22        45     9        0.000000        0.239851         3
        24        23        22        45     9      180.000000       -0.000475         4
        24        23        22        46     9        0.000000       -0.013356         1
        24        23        22        46     9      180.000000        0.018224         2
        24        23        22        46     9        0.000000        0.239851         3
        24        23        22        46     9      180.000000       -0.000475         4
        24        25        20        42     9        0.000000       -0.053865         1
        24        25        20        42     9      180.000000       -0.195077         2
        24        25        20        42     9        0.000000        0.386828         3
        24        25        20        42     9      180.000000        0.036111         4
        25        20        19        40     9        0.000000       -0.033109         1
        25        20        19        40     9      180.000000        0.052325         2
        25        20        19        40     9        0.000000        0.803370         3
        25        20        19        40     9      180.000000       -0.026172         4
        25        20        19        41     9        0.000000       -0.033109         1
        25        20        19        41     9      180.000000        0.052325         2
        25        20        19        41     9        0.000000        0.803370         3
        25        20        19        41     9      180.000000       -0.026172         4
        25        20        21        43     9        0.000000       -0.044210         1
        25        20        21        43     9      180.000000        0.072815         2
        25        20        21        43     9        0.000000        0.445484         3
        25        20        21        43     9      180.000000       -0.054902         4
        25        20        21        44     9        0.000000       -0.044210         1
        25        20        21        44     9      180.000000        0.072815         2
        25        20        21        44     9        0.000000        0.445484         3
        25        20        21        44     9      180.000000       -0.054902         4
        25        24        23        47     9        0.000000       -0.049008         1
        25        24        23        47     9      180.000000        0.015482         2
        25        24        23        47     9        0.000000        0.222308         3
        25        24        23        47     9      180.000000       -0.029978         4
        25        24        23        48     9        0.000000       -0.049008         1
        25        24        23        48     9      180.000000        0.015482         2
        25        24        23        48     9        0.000000        0.222308         3
        25        24        23        48     9      180.000000       -0.029978         4
        26         2         1        31     9        0.000000        0.095400         1
        26         2         1        31     9      180.000000       12.917514         2
        26         2         1        31     9        0.000000       -0.083627         3
        26         2         1        31     9      180.000000        0.131412         4
        26         2         3        32     9        0.000000        0.111943         1
        26         2         3        32     9      180.000000       13.759588         2
        26         2         3        32     9        0.000000       -0.035494         3
        26         2         3        32     9      180.000000        0.098743         4
        26        27        28        29     9        0.000000       -0.134777         1
        26        27        28        29     9      180.000000       40.806577         2
        26        27        28        29     9        0.000000       -5.612746         3
        26        27        28        29     9      180.000000        0.063617         4
        26        30        29        28     9        0.000000        0.066263         1
        26        30        29        28     9      180.000000       28.042082         2
        26        30        29        28     9        0.000000       -5.615535         3
        26        30        29        28     9      180.000000       -0.668047         4
        26        30        29        54     9        0.000000        0.336199         1
        26        30        29        54     9      180.000000        4.351156         2
        26        30        29        54     9        0.000000        0.482038         3
        26        30        29        54     9      180.000000       -0.039345         4
        27        26        30        29     9        0.000000       -0.118932         1
        27        26        30        29     9      180.000000       31.640127         2
        27        26        30        29     9        0.000000       -8.291755         3
        27        26        30        29     9      180.000000       -0.084831         4
        27        26        30        55     9        0.000000        0.077526         1
        27        26        30        55     9      180.000000       13.552562         2
        27        26        30        55     9        0.000000       -0.532406         3
        27        26        30        55     9      180.000000       -0.327345         4
        27        28        29        30     9        0.000000       -0.085420         1
        27        28        29        30     9      180.000000       24.810950         2
        27        28        29        30     9        0.000000       -3.753750         3
        27        28        29        30     9      180.000000       -0.234204         4
        27        28        29        54     9        0.000000        1.948868         1
        27        28        29        54     9      180.000000        7.806375         2
        27        28        29        54     9        0.000000        0.412134         3
        27        28        29        54     9      180.000000       -0.120978         4
        28        27        26        30     9        0.000000       -0.022691         1
        28        27        26        30     9      180.000000       31.001199         2
        28        27        26        30     9        0.000000       -8.329693         3
        28        27        26        30     9      180.000000       -0.019572         4
        28        29        30        55     9        0.000000        1.561768         1
        28        29        30        55     9      180.000000       11.120688         2
        28        29        30        55     9        0.000000        0.170916         3
        28        29        30        55     9      180.000000       -0.346899         4
        29        28        27        53     9        0.000000        1.221944         1
        29        28        27        53     9      180.000000       28.712007         2
        29        28        27        53     9        0.000000        0.066147         3
        29        28        27        53     9      180.000000        0.061269         4
        30        26        27        53     9        0.000000        0.215780         1
        30        26        27        53     9      180.000000       14.327833         2
        30        26        27        53     9        0.000000       -0.615286         3
        30        26        27        53     9      180.000000       -0.434408         4
        31         1         4        33     9        0.000000       -0.121925         1
        31         1         4        33     9      180.000000       12.764727         2
        31         1         4        33     9        0.000000       -0.651730         3
        31         1         4        33     9      180.000000        0.337548         4
        37        15        16        38     9        0.000000       -0.008913         1
        37        15        16        38     9      180.000000       12.566191         2
        37        15        16        38     9        0.000000       -0.661925         3
        37        15        16        38     9      180.000000        0.252906         4
        40        19        20        42     9        0.000000        0.012891         1
        40        19        20        42     9      180.000000        0.090470         2
        40        19        20        42     9        0.000000        0.602986         3
        40        19        20        42     9      180.000000       -0.069345         4
        41        19        20        42     9        0.000000        0.012891         1
        41        19        20        42     9      180.000000        0.090470         2
        41        19        20        42     9        0.000000        0.602986         3
        41        19        20        42     9      180.000000       -0.069345         4
        42        20        21        43     9        0.000000       -0.121456         1
        42        20        21        43     9      180.000000        0.136419         2
        42        20        21        43     9        0.000000        0.464455         3
        42        20        21        43     9      180.000000       -0.007453         4
        42        20        21        44     9        0.000000       -0.121456         1
        42        20        21        44     9      180.000000        0.136419         2
        42        20        21        44     9        0.000000        0.464455         3
        42        20        21        44     9      180.000000       -0.007453         4
        42        20        25        51     9        0.000000       -0.121456         1
        42        20        25        51     9      180.000000        0.136419         2
        42        20        25        51     9        0.000000        0.464455         3
        42        20        25        51     9      180.000000       -0.007453         4
        42        20        25        52     9        0.000000       -0.121456         1
        42        20        25        52     9      180.000000        0.136419         2
        42        20        25        52     9        0.000000        0.464455         3
        42        20        25        52     9      180.000000       -0.007453         4
        43        21        22        45     9        0.000000       -0.022405         1
        43        21        22        45     9      180.000000        0.027642         2
        43        21        22        45     9        0.000000        0.442579         3
        43        21        22        45     9      180.000000        0.000549         4
        43        21        22        46     9        0.000000       -0.022405         1
        43        21        22        46     9      180.000000        0.027642         2
        43        21        22        46     9        0.000000        0.442579         3
        43        21        22        46     9      180.000000        0.000549         4
        44        21        22        45     9        0.000000       -0.022405         1
        44        21        22        45     9      180.000000        0.027642         2
        44        21        22        45     9        0.000000        0.442579         3
        44        21        22        45     9      180.000000        0.000549         4
        44        21        22        46     9        0.000000       -0.022405         1
        44        21        22        46     9      180.000000        0.027642         2
        44        21        22        46     9        0.000000        0.442579         3
        44        21        22        46     9      180.000000        0.000549         4
        45        22        23        47     9        0.000000        0.007156         1
        45        22        23        47     9      180.000000       -0.013978         2
        45        22        23        47     9        0.000000        0.286858         3
        45        22        23        47     9      180.000000        0.008639         4
        45        22        23        48     9        0.000000        0.007156         1
        45        22        23        48     9      180.000000       -0.013978         2
        45        22        23        48     9        0.000000        0.286858         3
        45        22        23        48     9      180.000000        0.008639         4
        46        22        23        47     9        0.000000        0.007156         1
        46        22        23        47     9      180.000000       -0.013978         2
        46        22        23        47     9        0.000000        0.286858         3
        46        22        23        47     9      180.000000        0.008639         4
        46        22        23        48     9        0.000000        0.007156         1
        46        22        23        48     9      180.000000       -0.013978         2
        46        22        23        48     9        0.000000        0.286858         3
        46        22        23        48     9      180.000000        0.008639         4
        47        23        24        49     9        0.000000        0.007156         1
        47        23        24        49     9      180.000000       -0.013978         2
        47        23        24        49     9        0.000000        0.286858         3
        47        23        24        49     9      180.000000        0.008639         4
        47        23        24        50     9        0.000000        0.007156         1
        47        23        24        50     9      180.000000       -0.013978         2
        47        23        24        50     9        0.000000        0.286858         3
        47        23        24        50     9      180.000000        0.008639         4
        48        23        24        49     9        0.000000        0.007156         1
        48        23        24        49     9      180.000000       -0.013978         2
        48        23        24        49     9        0.000000        0.286858         3
        48        23        24        49     9      180.000000        0.008639         4
        48        23        24        50     9        0.000000        0.007156         1
        48        23        24        50     9      180.000000       -0.013978         2
        48        23        24        50     9        0.000000        0.286858         3
        48        23        24        50     9      180.000000        0.008639         4
        49        24        25        51     9        0.000000       -0.022405         1
        49        24        25        51     9      180.000000        0.027642         2
        49        24        25        51     9        0.000000        0.442579         3
        49        24        25        51     9      180.000000        0.000549         4
        49        24        25        52     9        0.000000       -0.022405         1
        49        24        25        52     9      180.000000        0.027642         2
        49        24        25        52     9        0.000000        0.442579         3
        49        24        25        52     9      180.000000        0.000549         4
        50        24        25        51     9        0.000000       -0.022405         1
        50        24        25        51     9      180.000000        0.027642         2
        50        24        25        51     9        0.000000        0.442579         3
        50        24        25        51     9      180.000000        0.000549         4
        50        24        25        52     9        0.000000       -0.022405         1
        50        24        25        52     9      180.000000        0.027642         2
        50        24        25        52     9        0.000000        0.442579         3
        50        24        25        52     9      180.000000        0.000549         4
        54        29        30        55     9        0.000000       -0.913352         1
        54        29        30        55     9      180.000000        1.165280         2
        54        29        30        55     9        0.000000       -0.009400         3
        54        29        30        55     9      180.000000       -0.123416         4

[ pairs ]
;       ai        aj funct
         1         6     1
         1         9     1
         1        27     1
         1        30     1
         1        32     1
         2         5     1
         2         7     1
         2        28     1
         2        29     1
         2        33     1
         2        53     1
         2        55     1
         3         4     1
         3         8     1
         3         9     1
         3        27     1
         3        30     1
         3        31     1
         3        34     1
         4         7     1
         4         8     1
         4        10     1
         4        26     1
         5        11     1
         5        12     1
         5        31     1
         5        32     1
         5        34     1
         6        10     1
         6        26     1
         6        33     1
         7        10     1
         7        32     1
         8        11     1
         8        12     1
         9        13     1
         9        14     1
         9        33     1
         9        34     1
         9        35     1
         9        36     1
        10        15     1
        10        18     1
        11        16     1
        11        18     1
        11        36     1
        11        37     1
        12        15     1
        12        17     1
        12        35     1
        12        39     1
        13        16     1
        13        19     1
        13        35     1
        13        37     1
        14        17     1
        14        36     1
        14        38     1
        14        39     1
        15        18     1
        15        19     1
        15        35     1
        16        20     1
        16        39     1
        16        40     1
        16        41     1
        17        21     1
        17        25     1
        17        37     1
        17        42     1
        18        20     1
        18        36     1
        18        38     1
        18        40     1
        18        41     1
        19        22     1
        19        24     1
        19        38     1
        19        39     1
        19        43     1
        19        44     1
        19        51     1
        19        52     1
        20        23     1
        20        45     1
        20        46     1
        20        49     1
        20        50     1
        21        24     1
        21        40     1
        21        41     1
        21        47     1
        21        48     1
        21        51     1
        21        52     1
        22        25     1
        22        42     1
        22        49     1
        22        50     1
        23        43     1
        23        44     1
        23        51     1
        23        52     1
        24        42     1
        24        45     1
        24        46     1
        25        40     1
        25        41     1
        25        43     1
        25        44     1
        25        47     1
        25        48     1
        26        31     1
        26        32     1
        26        54     1
        27        54     1
        27        55     1
        28        55     1
        29        53     1
        30        53     1
        31        33     1
        37        38     1
        40        42     1
        41        42     1
        42        43     1
        42        44     1
        42        51     1
        42        52     1
        43        45     1
        43        46     1
        44        45     1
        44        46     1
        45        47     1
        45        48     1
        46        47     1
        46        48     1
        47        49     1
        47        50     1
        48        49     1
        48        50     1
        49        51     1
        49        52     1
        50        51     1
        50        52     1
        54        55     1
