; ITP file created by ByteFF-ML, 2025-12-06 08:14:32.239241

[ atomtypes ]
;name           bonded.type        at.num        mass        charge   ptype           sigma         epsilon
 c0bf                                   6      0.0000       0.00000       A     3.31534e-01     4.13952e-01
 c1bf                                   6      0.0000       0.00000       A     3.31479e-01     4.12919e-01
 c2bf                                   6      0.0000       0.00000       A     3.31405e-01     4.12348e-01
 c3bf                                   6      0.0000       0.00000       A     3.31564e-01     4.12490e-01
 c4bf                                   6      0.0000       0.00000       A     3.31516e-01     4.12070e-01
 c5bf                                   6      0.0000       0.00000       A     3.31555e-01     4.12268e-01
 n6bf                                   7      0.0000       0.00000       A     3.20413e-01     8.53407e-01
 n7bf                                   7      0.0000       0.00000       A     3.38370e-01     3.92979e-01
 c8bf                                   6      0.0000       0.00000       A     3.31620e-01     4.14723e-01
 c9bf                                   6      0.0000       0.00000       A     3.31059e-01     4.13664e-01
 n10bf                                  7      0.0000       0.00000       A     3.20376e-01     8.55899e-01
 c11bf                                  6      0.0000       0.00000       A     3.31306e-01     4.11917e-01
 c12bf                                  6      0.0000       0.00000       A     3.31510e-01     4.13055e-01
 c13bf                                  6      0.0000       0.00000       A     3.31590e-01     4.12179e-01
 c14bf                                  6      0.0000       0.00000       A     3.31457e-01     4.13497e-01
 c15bf                                  6      0.0000       0.00000       A     3.31456e-01     4.14408e-01
 c16bf                                  6      0.0000       0.00000       A     3.31385e-01     4.12455e-01
 c17bf                                  6      0.0000       0.00000       A     3.31403e-01     4.13537e-01
 c18bf                                  6      0.0000       0.00000       A     3.39656e-01     4.51303e-01
 n19bf                                  7      0.0000       0.00000       A     2.58481e-01     1.06402e+01
 c20bf                                  6      0.0000       0.00000       A     3.39652e-01     4.51139e-01
 c21bf                                  6      0.0000       0.00000       A     3.39770e-01     4.51878e-01
 o22bf                                  8      0.0000       0.00000       A     3.15671e-01     3.01188e-01
 c23bf                                  6      0.0000       0.00000       A     3.39770e-01     4.51878e-01
 c24bf                                  6      0.0000       0.00000       A     3.39652e-01     4.51139e-01
 c25bf                                  6      0.0000       0.00000       A     3.31386e-01     4.11545e-01
 c26bf                                  6      0.0000       0.00000       A     3.31479e-01     4.11904e-01
 n27bf                                  7      0.0000       0.00000       A     3.20558e-01     8.54076e-01
 n28bf                                  7      0.0000       0.00000       A     3.38391e-01     3.93249e-01
 c29bf                                  6      0.0000       0.00000       A     3.31602e-01     4.13797e-01
 c30bf                                  6      0.0000       0.00000       A     3.39839e-01     4.51932e-01
 h31bf                                  1      0.0000       0.00000       A     2.62568e-01     6.73717e-02
 h32bf                                  1      0.0000       0.00000       A     2.62499e-01     6.76079e-02
 h33bf                                  1      0.0000       0.00000       A     2.62575e-01     6.68514e-02
 h34bf                                  1      0.0000       0.00000       A     1.10662e-01     4.14451e-02
 h35bf                                  1      0.0000       0.00000       A     1.10899e-01     4.15233e-02
 h36bf                                  1      0.0000       0.00000       A     2.62647e-01     6.66471e-02
 h37bf                                  1      0.0000       0.00000       A     2.62485e-01     6.72408e-02
 h38bf                                  1      0.0000       0.00000       A     2.62648e-01     6.74100e-02
 h39bf                                  1      0.0000       0.00000       A     2.62452e-01     6.78776e-02
 h40bf                                  1      0.0000       0.00000       A     1.87833e-01     8.63729e-02
 h41bf                                  1      0.0000       0.00000       A     1.87833e-01     8.63729e-02
 h42bf                                  1      0.0000       0.00000       A     1.10795e-01     4.14994e-02
 h43bf                                  1      0.0000       0.00000       A     1.88091e-01     8.73034e-02
 h44bf                                  1      0.0000       0.00000       A     1.88091e-01     8.73034e-02
 h45bf                                  1      0.0000       0.00000       A     2.42076e-01     8.71534e-02
 h46bf                                  1      0.0000       0.00000       A     2.42076e-01     8.71534e-02
 h47bf                                  1      0.0000       0.00000       A     2.42076e-01     8.71534e-02
 h48bf                                  1      0.0000       0.00000       A     2.42076e-01     8.71534e-02
 h49bf                                  1      0.0000       0.00000       A     1.88091e-01     8.73034e-02
 h50bf                                  1      0.0000       0.00000       A     1.88091e-01     8.73034e-02
 h51bf                                  1      0.0000       0.00000       A     2.53807e-01     6.74898e-02
 h52bf                                  1      0.0000       0.00000       A     2.53933e-01     6.69200e-02
 h53bf                                  1      0.0000       0.00000       A     2.41990e-01     8.77359e-02
 h54bf                                  1      0.0000       0.00000       A     2.41990e-01     8.77359e-02
 h55bf                                  1      0.0000       0.00000       A     2.41990e-01     8.77359e-02

[ moleculetype ]
;name             nrexcl
 12_docked             3

[ atoms ]
;       nr            type      resi   res      atom      cgnr      charge          mass ; qtot
         1            c0bf         1   UNL        c0         1    -0.14357       12.0110 ; qtot   -0.144
         2            c1bf         1   UNL        c1         2     0.05022       12.0110 ; qtot   -0.093
         3            c2bf         1   UNL        c2         3    -0.14422       12.0110 ; qtot   -0.238
         4            c3bf         1   UNL        c3         4    -0.02782       12.0110 ; qtot   -0.265
         5            c4bf         1   UNL        c4         5    -0.21218       12.0110 ; qtot   -0.478
         6            c5bf         1   UNL        c5         6    -0.01178       12.0110 ; qtot   -0.489
         7            n6bf         1   UNL        n6         7    -0.07117       14.0070 ; qtot   -0.561
         8            n7bf         1   UNL        n7         8    -0.50860       14.0070 ; qtot   -1.069
         9            c8bf         1   UNL        c8         9     0.42067       12.0110 ; qtot   -0.648
        10            c9bf         1   UNL        c9        10    -0.09417       12.0110 ; qtot   -0.743
        11           n10bf         1   UNL       n10        11    -0.22773       14.0070 ; qtot   -0.970
        12           c11bf         1   UNL       c11        12    -0.19556       12.0110 ; qtot   -1.166
        13           c12bf         1   UNL       c12        13    -0.10699       12.0110 ; qtot   -1.273
        14           c13bf         1   UNL       c13        14    -0.00399       12.0110 ; qtot   -1.277
        15           c14bf         1   UNL       c14        15    -0.10608       12.0110 ; qtot   -1.383
        16           c15bf         1   UNL       c15        16    -0.06975       12.0110 ; qtot   -1.453
        17           c16bf         1   UNL       c16        17    -0.21714       12.0110 ; qtot   -1.670
        18           c17bf         1   UNL       c17        18     0.00617       12.0110 ; qtot   -1.664
        19           c18bf         1   UNL       c18        19     0.19106       12.0110 ; qtot   -1.473
        20           n19bf         1   UNL       n19        20    -0.67942       14.0070 ; qtot   -2.152
        21           c20bf         1   UNL       c20        21     0.07434       12.0110 ; qtot   -2.078
        22           c21bf         1   UNL       c21        22     0.12854       12.0110 ; qtot   -1.949
        23           o22bf         1   UNL       o22        23    -0.42045       15.9990 ; qtot   -2.370
        24           c23bf         1   UNL       c23        24     0.12854       12.0110 ; qtot   -2.241
        25           c24bf         1   UNL       c24        25     0.07434       12.0110 ; qtot   -2.167
        26           c25bf         1   UNL       c25        26    -0.16738       12.0110 ; qtot   -2.334
        27           c26bf         1   UNL       c26        27    -0.14452       12.0110 ; qtot   -2.479
        28           n27bf         1   UNL       n27        28     0.11147       14.0070 ; qtot   -2.367
        29           n28bf         1   UNL       n28        29    -0.52202       14.0070 ; qtot   -2.889
        30           c29bf         1   UNL       c29        30     0.25425       12.0110 ; qtot   -2.635
        31           c30bf         1   UNL       c30        31     0.07027       12.0110 ; qtot   -2.565
        32           h31bf         1   UNL       h31        32     0.11740        1.0080 ; qtot   -2.447
        33           h32bf         1   UNL       h32        33     0.12598        1.0080 ; qtot   -2.321
        34           h33bf         1   UNL       h33        34     0.12733        1.0080 ; qtot   -2.194
        35           h34bf         1   UNL       h34        35     0.37953        1.0080 ; qtot   -1.814
        36           h35bf         1   UNL       h35        36     0.35537        1.0080 ; qtot   -1.459
        37           h36bf         1   UNL       h36        37     0.20407        1.0080 ; qtot   -1.255
        38           h37bf         1   UNL       h37        38     0.13079        1.0080 ; qtot   -1.124
        39           h38bf         1   UNL       h38        39     0.12413        1.0080 ; qtot   -1.000
        40           h39bf         1   UNL       h39        40     0.12618        1.0080 ; qtot   -0.874
        41           h40bf         1   UNL       h40        41     0.09924        1.0080 ; qtot   -0.775
        42           h41bf         1   UNL       h41        42     0.09924        1.0080 ; qtot   -0.675
        43           h42bf         1   UNL       h42        43     0.50523        1.0080 ; qtot   -0.170
        44           h43bf         1   UNL       h43        44     0.10566        1.0080 ; qtot   -0.065
        45           h44bf         1   UNL       h44        45     0.10566        1.0080 ; qtot    0.041
        46           h45bf         1   UNL       h45        46     0.09543        1.0080 ; qtot    0.137
        47           h46bf         1   UNL       h46        47     0.09543        1.0080 ; qtot    0.232
        48           h47bf         1   UNL       h47        48     0.09543        1.0080 ; qtot    0.327
        49           h48bf         1   UNL       h48        49     0.09543        1.0080 ; qtot    0.423
        50           h49bf         1   UNL       h49        50     0.10566        1.0080 ; qtot    0.529
        51           h50bf         1   UNL       h50        51     0.10566        1.0080 ; qtot    0.634
        52           h51bf         1   UNL       h51        52     0.15343        1.0080 ; qtot    0.788
        53           h52bf         1   UNL       h52        53     0.03786        1.0080 ; qtot    0.825
        54           h53bf         1   UNL       h53        54     0.05817        1.0080 ; qtot    0.884
        55           h54bf         1   UNL       h54        55     0.05817        1.0080 ; qtot    0.942
        56           h55bf         1   UNL       h55        56     0.05819        1.0080 ; qtot    1.000

[ bonds ]
;       ai        aj funct               r               k
         1         2     1        0.142705   248797.892871
         1         4     1        0.138673   340536.740625
         1        32     1        0.108528   319476.873877
         2         3     1        0.139661   306046.167480
         2        26     1        0.146850   235113.500830
         3         6     1        0.140237   303770.785498
         3        33     1        0.108520   320439.699512
         4         5     1        0.141031   296863.840137
         4        34     1        0.108495   322124.127246
         5         6     1        0.141888   248938.040527
         5         9     1        0.144249   224241.714941
         6         7     1        0.137201   282844.528906
         7         8     1        0.135674   254856.393311
         7        35     1        0.100958   433953.223242
         8         9     1        0.133497   344504.952051
         9        10     1        0.145193   253459.998633
        10        11     1        0.139180   262347.346826
        10        12     1        0.138454   347289.441846
        11        14     1        0.138201   275860.155029
        11        36     1        0.101035   429177.375195
        12        13     1        0.143536   250057.076660
        12        37     1        0.108050   337425.503516
        13        14     1        0.142955   237535.976562
        13        18     1        0.140443   303438.496631
        14        15     1        0.140156   305366.522852
        15        16     1        0.138900   337804.831738
        15        38     1        0.108539   321997.667480
        16        17     1        0.141819   266033.143359
        16        39     1        0.108652   318090.208838
        17        18     1        0.139677   302830.509131
        17        19     1        0.149898   204587.819287
        18        40     1        0.108666   317086.370605
        19        20     1        0.153335   109720.369189
        19        41     1        0.109094   309107.990283
        19        42     1        0.109094   309107.990283
        20        21     1        0.151614   136708.892944
        20        25     1        0.151614   136708.892944
        20        43     1        0.102572   383360.072559
        21        22     1        0.153815   174333.405688
        21        44     1        0.109056   312272.191357
        21        45     1        0.109056   312272.191357
        22        23     1        0.142262   207677.337085
        22        46     1        0.109424   300727.681396
        22        47     1        0.109424   300727.681396
        23        24     1        0.142262   207677.337085
        24        25     1        0.153815   174333.405688
        24        48     1        0.109424   300727.655859
        24        49     1        0.109424   300727.655859
        25        50     1        0.109056   312272.191357
        25        51     1        0.109056   312272.191357
        26        27     1        0.139469   321097.280078
        26        30     1        0.142338   259899.742578
        27        28     1        0.135875   314127.028223
        27        52     1        0.108070   337560.237305
        28        29     1        0.135354   242037.913574
        28        31     1        0.145314   224810.528516
        29        30     1        0.133411   358278.826123
        30        53     1        0.108236   332300.971777
        31        54     1        0.109196   305692.172070
        31        55     1        0.109196   305692.172070
        31        56     1        0.109196   305692.172070

[ angles ]
;       ai        aj        ak funct           theta             cth
         1         2         3     1      119.417252      579.482659
         1         2        26     1      119.932884      569.691668
         1         4         5     1      118.848328      671.295846
         1         4        34     1      120.385864      424.313309
         2         1         4     1      122.190659      656.262213
         2         1        32     1      118.806808      453.968437
         2         3         6     1      117.937027      747.642162
         2         3        33     1      120.868935      427.574143
         2        26        27     1      127.891556      501.744027
         2        26        30     1      128.621613      540.841055
         3         2        26     1      120.616783      431.502484
         3         6         5     1      122.910912      642.735653
         3         6         7     1      131.457489      460.493073
         4         1        32     1      119.184898      435.301991
         4         5         6     1      118.666458      699.853995
         4         5         9     1      136.491928      473.672360
         5         4        34     1      121.025253      436.214273
         5         6         7     1      105.792870      167.360000
         5         9         8     1      110.611916      350.554540
         5         9        10     1      129.210236      400.211641
         6         3        33     1      121.262131      437.154708
         6         5         9     1      104.632042      427.813681
         6         7         8     1      112.709862      422.513230
         6         7        35     1      128.459122      379.676485
         7         8         9     1      106.529152      587.304995
         8         7        35     1      118.725540      478.396534
         8         9        10     1      120.099777      559.250884
         9        10        11     1      120.414673      507.245551
         9        10        12     1      131.034760      447.502696
        10        11        14     1      109.440186      409.573864
        10        11        36     1      123.215820      379.022543
        10        12        13     1      107.464355      383.437239
        10        12        37     1      125.246742      393.800518
        11        10        12     1      108.673904      167.360000
        11        14        13     1      107.344810      298.221055
        11        14        15     1      130.709946      469.443893
        12        13        14     1      106.916115      360.114421
        12        13        18     1      134.237762      411.179095
        13        12        37     1      127.224655      385.462587
        13        14        15     1      122.047226      612.367944
        13        18        17     1      119.376549      655.622253
        13        18        40     1      119.879227      440.646397
        14        11        36     1      125.853867      394.838697
        14        13        18     1      118.799820      745.865546
        14        15        16     1      117.639648      794.148814
        14        15        38     1      121.576096      439.900650
        15        16        17     1      121.524864      583.498880
        15        16        39     1      118.960594      421.153092
        16        15        38     1      120.828659      425.915061
        16        17        18     1      120.372581      616.559733
        16        17        19     1      119.634644      532.024719
        17        16        39     1      119.626991      401.380985
        17        18        40     1      120.674217      396.460974
        17        19        20     1      111.308205      571.608675
        17        19        41     1      112.417648      462.690030
        17        19        42     1      112.417648      462.690030
        18        17        19     1      120.019272      462.527263
        19        20        21     1      113.090027      581.744417
        19        20        25     1      113.090027      581.744417
        19        20        43     1      106.135574      487.019075
        20        19        41     1      105.654091      546.385033
        20        19        42     1      105.654091      546.385033
        20        21        22     1      109.042496      734.588103
        20        21        44     1      107.293663      516.296956
        20        21        45     1      107.293663      516.296956
        20        25        24     1      109.042496      734.588103
        20        25        50     1      107.293663      516.296956
        20        25        51     1      107.293663      516.296956
        21        20        25     1      109.997581      608.225378
        21        20        43     1      106.795876      499.758485
        21        22        23     1      110.302589      635.365069
        21        22        46     1      110.192177      463.362742
        21        22        47     1      110.192177      463.362742
        22        21        44     1      112.008018      458.431909
        22        21        45     1      112.008018      458.431909
        22        23        24     1      111.501907      620.610110
        23        22        46     1      108.885300      472.681105
        23        22        47     1      108.885300      472.681105
        23        24        25     1      110.302589      635.365069
        23        24        48     1      108.885300      472.681105
        23        24        49     1      108.885300      472.681105
        24        25        50     1      112.008018      458.431909
        24        25        51     1      112.008018      458.431909
        25        20        43     1      106.795876      499.758485
        25        24        48     1      110.192177      463.362742
        25        24        49     1      110.192177      463.362742
        26        27        28     1      107.281006      167.360000
        26        27        52     1      131.314484      330.003615
        26        30        29     1      112.003944      242.084439
        26        30        53     1      128.575058      361.590561
        27        26        30     1      103.501709      370.327732
        27        28        29     1      112.316727      213.692680
        27        28        31     1      128.032074      423.418393
        28        27        52     1      121.679726      464.261392
        28        29        30     1      104.963829      567.940524
        28        31        54     1      109.593651      496.372137
        28        31        55     1      109.593666      496.372137
        28        31        56     1      109.593666      496.372137
        29        28        31     1      119.401016      615.866209
        29        30        53     1      119.384933      391.257309
        41        19        42     1      108.559570      348.981358
        44        21        45     1      109.184982      342.432016
        46        22        47     1      108.377304      338.948690
        48        24        49     1      108.377304      338.948690
        50        25        51     1      109.184982      342.432016
        54        31        55     1      109.444870      349.033390
        54        31        56     1      109.444870      349.033390
        55        31        56     1      109.444870      349.033390

[ dihedrals ] ; propers for gromacs 4.5 or higher, use funct 9
;       ai        aj        ak        al funct           phase               k        pn
         1         2         3         6     9        0.000000       -0.223892         1
         1         2         3         6     9      180.000000       20.783099         2
         1         2         3         6     9        0.000000       -1.725051         3
         1         2         3         6     9      180.000000       -0.513047         4
         1         2         3        33     9        0.000000        0.042879         1
         1         2         3        33     9      180.000000       14.072724         2
         1         2         3        33     9        0.000000       -0.443661         3
         1         2         3        33     9      180.000000        0.097850         4
         1         2        26        27     9        0.000000        0.189287         1
         1         2        26        27     9      180.000000        2.681991         2
         1         2        26        27     9        0.000000        0.023049         3
         1         2        26        27     9      180.000000       -0.245512         4
         1         2        26        30     9        0.000000       -0.053343         1
         1         2        26        30     9      180.000000        2.311116         2
         1         2        26        30     9        0.000000       -0.070072         3
         1         2        26        30     9      180.000000       -0.200563         4
         1         4         5         6     9        0.000000        0.096243         1
         1         4         5         6     9      180.000000       19.820145         2
         1         4         5         6     9        0.000000       -2.377726         3
         1         4         5         6     9      180.000000       -0.463982         4
         1         4         5         9     9        0.000000       -0.064396         1
         1         4         5         9     9      180.000000       12.119103         2
         1         4         5         9     9        0.000000       -0.425376         3
         1         4         5         9     9      180.000000        0.012273         4
         2         1         4         5     9        0.000000       -0.000423         1
         2         1         4         5     9      180.000000       20.596082         2
         2         1         4         5     9        0.000000       -1.683880         3
         2         1         4         5     9      180.000000       -0.385754         4
         2         1         4        34     9        0.000000       -0.021488         1
         2         1         4        34     9      180.000000       15.321699         2
         2         1         4        34     9        0.000000       -0.393227         3
         2         1         4        34     9      180.000000        0.144414         4
         2         3         6         5     9        0.000000       -0.151135         1
         2         3         6         5     9      180.000000       16.312759         2
         2         3         6         5     9        0.000000       -1.611409         3
         2         3         6         5     9      180.000000       -0.332671         4
         2         3         6         7     9        0.000000        0.230213         1
         2         3         6         7     9      180.000000       14.400995         2
         2         3         6         7     9        0.000000       -0.182380         3
         2         3         6         7     9      180.000000       -0.269184         4
         2        26        27        28     9        0.000000        0.163788         1
         2        26        27        28     9      180.000000       16.084099         2
         2        26        27        28     9        0.000000       -0.288498         3
         2        26        27        28     9      180.000000       -0.906567         4
         2        26        27        52     9        0.000000       -0.234578         1
         2        26        27        52     9      180.000000       10.707567         2
         2        26        27        52     9        0.000000       -0.168342         3
         2        26        27        52     9      180.000000       -0.029342         4
         2        26        30        29     9        0.000000        0.365800         1
         2        26        30        29     9      180.000000       14.979707         2
         2        26        30        29     9        0.000000       -0.395749         3
         2        26        30        29     9      180.000000       -0.946244         4
         2        26        30        53     9        0.000000       -0.192216         1
         2        26        30        53     9      180.000000       10.335453         2
         2        26        30        53     9        0.000000       -0.034098         3
         2        26        30        53     9      180.000000        0.018963         4
         3         2         1         4     9        0.000000       -0.080950         1
         3         2         1         4     9      180.000000       16.054890         2
         3         2         1         4     9        0.000000       -1.094445         3
         3         2         1         4     9      180.000000       -0.360155         4
         3         2         1        32     9        0.000000        0.004051         1
         3         2         1        32     9      180.000000       12.379012         2
         3         2         1        32     9        0.000000       -0.519910         3
         3         2         1        32     9      180.000000        0.097831         4
         3         2        26        27     9        0.000000        0.322663         1
         3         2        26        27     9      180.000000        2.527403         2
         3         2        26        27     9        0.000000        0.200139         3
         3         2        26        27     9      180.000000       -0.308337         4
         3         2        26        30     9        0.000000       -0.144864         1
         3         2        26        30     9      180.000000        2.191228         2
         3         2        26        30     9        0.000000       -0.034742         3
         3         2        26        30     9      180.000000       -0.233551         4
         3         6         5         4     9        0.000000       -0.294550         1
         3         6         5         4     9      180.000000        9.515487         2
         3         6         5         4     9        0.000000       -1.700214         3
         3         6         5         4     9      180.000000        0.064668         4
         3         6         5         9     9        0.000000       -0.111736         1
         3         6         5         9     9      180.000000       10.415624         2
         3         6         5         9     9        0.000000       -1.949797         3
         3         6         5         9     9      180.000000       -0.017422         4
         3         6         7         8     9        0.000000        1.102552         1
         3         6         7         8     9      180.000000        4.937642         2
         3         6         7         8     9        0.000000        0.224061         3
         3         6         7         8     9      180.000000       -0.033994         4
         3         6         7        35     9        0.000000       -0.656709         1
         3         6         7        35     9      180.000000        1.335445         2
         3         6         7        35     9        0.000000       -0.036460         3
         3         6         7        35     9      180.000000       -0.067791         4
         4         1         2        26     9        0.000000        0.199785         1
         4         1         2        26     9      180.000000       15.047057         2
         4         1         2        26     9        0.000000       -0.122839         3
         4         1         2        26     9      180.000000       -0.310890         4
         4         5         6         7     9        0.000000        0.417244         1
         4         5         6         7     9      180.000000        9.575059         2
         4         5         6         7     9        0.000000       -1.762338         3
         4         5         6         7     9      180.000000        0.065841         4
         4         5         9         8     9        0.000000       -0.090917         1
         4         5         9         8     9      180.000000        4.601422         2
         4         5         9         8     9        0.000000       -1.056896         3
         4         5         9         8     9      180.000000        0.124770         4
         4         5         9        10     9        0.000000        0.181129         1
         4         5         9        10     9      180.000000        5.920412         2
         4         5         9        10     9        0.000000        0.454791         3
         4         5         9        10     9      180.000000       -0.075157         4
         5         4         1        32     9        0.000000        0.140798         1
         5         4         1        32     9      180.000000       16.586350         2
         5         4         1        32     9        0.000000       -0.374678         3
         5         4         1        32     9      180.000000        0.015089         4
         5         6         3        33     9        0.000000        0.090612         1
         5         6         3        33     9      180.000000       11.701441         2
         5         6         3        33     9        0.000000       -0.243154         3
         5         6         3        33     9      180.000000        0.011464         4
         5         6         7         8     9        0.000000        0.552178         1
         5         6         7         8     9      180.000000       23.528259         2
         5         6         7         8     9        0.000000       -4.702949         3
         5         6         7         8     9      180.000000       -1.158268         4
         5         6         7        35     9        0.000000        0.554766         1
         5         6         7        35     9      180.000000        1.385599         2
         5         6         7        35     9        0.000000        0.413487         3
         5         6         7        35     9      180.000000        0.047855         4
         5         9         8         7     9        0.000000       -0.418552         1
         5         9         8         7     9      180.000000       37.593522         2
         5         9         8         7     9        0.000000       -4.111731         3
         5         9         8         7     9      180.000000        0.014899         4
         5         9        10        11     9        0.000000        0.806903         1
         5         9        10        11     9      180.000000        3.026526         2
         5         9        10        11     9        0.000000        0.344460         3
         5         9        10        11     9      180.000000       -0.063225         4
         5         9        10        12     9        0.000000       -0.066838         1
         5         9        10        12     9      180.000000        2.238543         2
         5         9        10        12     9        0.000000       -0.182816         3
         5         9        10        12     9      180.000000       -0.102441         4
         6         3         2        26     9        0.000000        0.297312         1
         6         3         2        26     9      180.000000       20.871228         2
         6         3         2        26     9        0.000000        0.161348         3
         6         3         2        26     9      180.000000       -1.096474         4
         6         5         4        34     9        0.000000        0.221940         1
         6         5         4        34     9      180.000000       13.471706         2
         6         5         4        34     9        0.000000       -0.389440         3
         6         5         4        34     9      180.000000       -0.037976         4
         6         5         9         8     9        0.000000       -0.456844         1
         6         5         9         8     9      180.000000       30.016857         2
         6         5         9         8     9        0.000000       -9.800550         3
         6         5         9         8     9      180.000000       -0.090216         4
         6         5         9        10     9        0.000000        1.068522         1
         6         5         9        10     9      180.000000       16.782260         2
         6         5         9        10     9        0.000000       -0.218539         3
         6         5         9        10     9      180.000000       -1.072581         4
         6         7         8         9     9        0.000000       -0.016131         1
         6         7         8         9     9      180.000000       21.342242         2
         6         7         8         9     9        0.000000       -2.148251         3
         6         7         8         9     9      180.000000       -0.957563         4
         7         6         3        33     9        0.000000       -0.019142         1
         7         6         3        33     9      180.000000       10.629392         2
         7         6         3        33     9        0.000000        0.038295         3
         7         6         3        33     9      180.000000        0.087131         4
         7         6         5         9     9        0.000000        0.262721         1
         7         6         5         9     9      180.000000       16.945877         2
         7         6         5         9     9        0.000000       -5.267613         3
         7         6         5         9     9      180.000000       -0.325248         4
         7         8         9        10     9        0.000000        0.810242         1
         7         8         9        10     9      180.000000       31.756533         2
         7         8         9        10     9        0.000000        1.337243         3
         7         8         9        10     9      180.000000       -1.207537         4
         8         9        10        11     9        0.000000        0.539428         1
         8         9        10        11     9      180.000000        3.785728         2
         8         9        10        11     9        0.000000       -0.325839         3
         8         9        10        11     9      180.000000        0.116329         4
         8         9        10        12     9        0.000000        0.657073         1
         8         9        10        12     9      180.000000        2.918871         2
         8         9        10        12     9        0.000000        0.344699         3
         8         9        10        12     9      180.000000       -0.118837         4
         9         5         4        34     9        0.000000        0.022379         1
         9         5         4        34     9      180.000000        9.588113         2
         9         5         4        34     9        0.000000       -0.005947         3
         9         5         4        34     9      180.000000        0.114198         4
         9         8         7        35     9        0.000000        1.778084         1
         9         8         7        35     9      180.000000        4.278802         2
         9         8         7        35     9        0.000000        0.405985         3
         9         8         7        35     9      180.000000       -0.125475         4
         9        10        11        14     9        0.000000        1.016913         1
         9        10        11        14     9      180.000000       10.893483         2
         9        10        11        14     9        0.000000        0.597977         3
         9        10        11        14     9      180.000000       -0.510303         4
         9        10        11        36     9        0.000000       -0.731223         1
         9        10        11        36     9      180.000000        1.551980         2
         9        10        11        36     9        0.000000       -0.019945         3
         9        10        11        36     9      180.000000       -0.089541         4
         9        10        12        13     9        0.000000        0.330131         1
         9        10        12        13     9      180.000000       19.922010         2
         9        10        12        13     9        0.000000       -0.051986         3
         9        10        12        13     9      180.000000       -1.494159         4
         9        10        12        37     9        0.000000       -0.093761         1
         9        10        12        37     9      180.000000       12.711677         2
         9        10        12        37     9        0.000000       -0.290686         3
         9        10        12        37     9      180.000000       -0.047875         4
        10        11        14        13     9        0.000000       -0.265782         1
        10        11        14        13     9      180.000000       18.548794         2
        10        11        14        13     9        0.000000       -3.718642         3
        10        11        14        13     9      180.000000       -0.568234         4
        10        11        14        15     9        0.000000        0.342725         1
        10        11        14        15     9      180.000000        3.578985         2
        10        11        14        15     9        0.000000        0.671999         3
        10        11        14        15     9      180.000000        0.060759         4
        10        12        13        14     9        0.000000       -0.189760         1
        10        12        13        14     9      180.000000       26.545747         2
        10        12        13        14     9        0.000000       -7.734337         3
        10        12        13        14     9      180.000000       -0.101177         4
        10        12        13        18     9        0.000000        0.333904         1
        10        12        13        18     9      180.000000        4.966556         2
        10        12        13        18     9        0.000000       -0.021350         3
        10        12        13        18     9      180.000000       -0.127696         4
        11        10        12        13     9        0.000000       -0.384049         1
        11        10        12        13     9      180.000000       30.847781         2
        11        10        12        13     9        0.000000       -5.882406         3
        11        10        12        13     9      180.000000       -0.738096         4
        11        10        12        37     9        0.000000       -0.208855         1
        11        10        12        37     9      180.000000       15.439502         2
        11        10        12        37     9        0.000000       -0.451777         3
        11        10        12        37     9      180.000000       -0.226957         4
        11        14        13        12     9        0.000000        0.336582         1
        11        14        13        12     9      180.000000       18.386561         2
        11        14        13        12     9        0.000000       -5.273211         3
        11        14        13        12     9      180.000000       -0.354630         4
        11        14        13        18     9        0.000000        0.315759         1
        11        14        13        18     9      180.000000       10.854582         2
        11        14        13        18     9        0.000000       -1.621106         3
        11        14        13        18     9      180.000000       -0.113402         4
        11        14        15        16     9        0.000000        0.233748         1
        11        14        15        16     9      180.000000       15.245659         2
        11        14        15        16     9        0.000000       -0.036583         3
        11        14        15        16     9      180.000000       -0.222307         4
        11        14        15        38     9        0.000000       -0.141852         1
        11        14        15        38     9      180.000000       11.257604         2
        11        14        15        38     9        0.000000       -0.030213         3
        11        14        15        38     9      180.000000        0.130882         4
        12        10        11        14     9        0.000000        0.063635         1
        12        10        11        14     9      180.000000       18.838630         2
        12        10        11        14     9        0.000000       -5.407668         3
        12        10        11        14     9      180.000000       -0.541921         4
        12        10        11        36     9        0.000000       -1.128438         1
        12        10        11        36     9      180.000000        2.375408         2
        12        10        11        36     9        0.000000        0.273838         3
        12        10        11        36     9      180.000000        0.242639         4
        12        13        14        15     9        0.000000        0.026380         1
        12        13        14        15     9      180.000000        9.740390         2
        12        13        14        15     9        0.000000       -1.537542         3
        12        13        14        15     9      180.000000        0.038336         4
        12        13        18        17     9        0.000000        0.232595         1
        12        13        18        17     9      180.000000       14.006439         2
        12        13        18        17     9        0.000000       -0.477713         3
        12        13        18        17     9      180.000000       -0.321864         4
        12        13        18        40     9        0.000000        0.068439         1
        12        13        18        40     9      180.000000       10.607843         2
        12        13        18        40     9        0.000000       -0.059897         3
        12        13        18        40     9      180.000000        0.061277         4
        13        14        11        36     9        0.000000        0.060217         1
        13        14        11        36     9      180.000000        1.233275         2
        13        14        11        36     9        0.000000        0.211642         3
        13        14        11        36     9      180.000000        0.041954         4
        13        14        15        16     9        0.000000       -0.045533         1
        13        14        15        16     9      180.000000       17.207435         2
        13        14        15        16     9        0.000000       -1.559634         3
        13        14        15        16     9      180.000000       -0.300273         4
        13        14        15        38     9        0.000000        0.165080         1
        13        14        15        38     9      180.000000       11.983177         2
        13        14        15        38     9        0.000000       -0.139937         3
        13        14        15        38     9      180.000000       -0.000811         4
        13        18        17        16     9        0.000000       -0.037501         1
        13        18        17        16     9      180.000000       20.636420         2
        13        18        17        16     9        0.000000       -1.546996         3
        13        18        17        16     9      180.000000       -0.599422         4
        13        18        17        19     9        0.000000        0.271711         1
        13        18        17        19     9      180.000000       17.146138         2
        13        18        17        19     9        0.000000        0.107307         3
        13        18        17        19     9      180.000000       -0.496996         4
        14        13        12        37     9        0.000000        1.031704         1
        14        13        12        37     9      180.000000       11.253080         2
        14        13        12        37     9        0.000000        0.319281         3
        14        13        12        37     9      180.000000       -0.385662         4
        14        13        18        17     9        0.000000       -0.081543         1
        14        13        18        17     9      180.000000       19.370271         2
        14        13        18        17     9        0.000000       -1.673895         3
        14        13        18        17     9      180.000000       -0.550291         4
        14        13        18        40     9        0.000000        0.420282         1
        14        13        18        40     9      180.000000       13.608947         2
        14        13        18        40     9        0.000000       -0.137859         3
        14        13        18        40     9      180.000000       -0.185992         4
        14        15        16        17     9        0.000000       -0.102544         1
        14        15        16        17     9      180.000000       21.940856         2
        14        15        16        17     9        0.000000       -1.646905         3
        14        15        16        17     9      180.000000       -0.626166         4
        14        15        16        39     9        0.000000        0.047989         1
        14        15        16        39     9      180.000000       17.069876         2
        14        15        16        39     9        0.000000       -0.598388         3
        14        15        16        39     9      180.000000       -0.210061         4
        15        14        11        36     9        0.000000       -0.258692         1
        15        14        11        36     9      180.000000        0.808008         2
        15        14        11        36     9        0.000000        0.218709         3
        15        14        11        36     9      180.000000       -0.061191         4
        15        14        13        18     9        0.000000       -0.011740         1
        15        14        13        18     9      180.000000       10.681982         2
        15        14        13        18     9        0.000000       -1.107452         3
        15        14        13        18     9      180.000000       -0.059133         4
        15        16        17        18     9        0.000000        0.118539         1
        15        16        17        18     9      180.000000       18.060670         2
        15        16        17        18     9        0.000000       -1.477352         3
        15        16        17        18     9      180.000000       -0.395645         4
        15        16        17        19     9        0.000000        0.419690         1
        15        16        17        19     9      180.000000       13.945821         2
        15        16        17        19     9        0.000000       -0.015159         3
        15        16        17        19     9      180.000000       -0.066517         4
        16        17        18        40     9        0.000000        0.135532         1
        16        17        18        40     9      180.000000       14.395434         2
        16        17        18        40     9        0.000000       -0.566527         3
        16        17        18        40     9      180.000000       -0.066211         4
        16        17        19        20     9        0.000000        0.495954         1
        16        17        19        20     9      180.000000       -1.463716         2
        16        17        19        20     9        0.000000        0.415694         3
        16        17        19        20     9      180.000000        0.031273         4
        16        17        19        41     9        0.000000       -0.029839         1
        16        17        19        41     9      180.000000        0.220924         2
        16        17        19        41     9        0.000000        0.198524         3
        16        17        19        41     9      180.000000       -0.023837         4
        16        17        19        42     9        0.000000       -0.029839         1
        16        17        19        42     9      180.000000        0.220924         2
        16        17        19        42     9        0.000000        0.198524         3
        16        17        19        42     9      180.000000       -0.023837         4
        17        16        15        38     9        0.000000        0.034577         1
        17        16        15        38     9      180.000000       15.336710         2
        17        16        15        38     9        0.000000       -0.493478         3
        17        16        15        38     9      180.000000        0.031911         4
        17        19        20        21     9        0.000000        0.281927         1
        17        19        20        21     9      180.000000       -0.094873         2
        17        19        20        21     9        0.000000        1.004832         3
        17        19        20        21     9      180.000000        0.065740         4
        17        19        20        25     9        0.000000        0.281927         1
        17        19        20        25     9      180.000000       -0.094873         2
        17        19        20        25     9        0.000000        1.004832         3
        17        19        20        25     9      180.000000        0.065740         4
        17        19        20        43     9        0.000000        1.590065         1
        17        19        20        43     9      180.000000        0.009417         2
        17        19        20        43     9        0.000000        0.593609         3
        17        19        20        43     9      180.000000       -0.103121         4
        18        13        12        37     9        0.000000       -0.483131         1
        18        13        12        37     9      180.000000        4.503046         2
        18        13        12        37     9        0.000000       -0.221609         3
        18        13        12        37     9      180.000000        0.120485         4
        18        17        16        39     9        0.000000        0.109962         1
        18        17        16        39     9      180.000000       13.524185         2
        18        17        16        39     9        0.000000       -0.741933         3
        18        17        16        39     9      180.000000        0.050029         4
        18        17        19        20     9        0.000000       -0.337914         1
        18        17        19        20     9      180.000000       -1.285553         2
        18        17        19        20     9        0.000000        0.204357         3
        18        17        19        20     9      180.000000        0.039979         4
        18        17        19        41     9        0.000000        0.011347         1
        18        17        19        41     9      180.000000        0.168291         2
        18        17        19        41     9        0.000000       -0.027341         3
        18        17        19        41     9      180.000000       -0.043228         4
        18        17        19        42     9        0.000000        0.011347         1
        18        17        19        42     9      180.000000        0.168291         2
        18        17        19        42     9        0.000000       -0.027341         3
        18        17        19        42     9      180.000000       -0.043228         4
        19        17        16        39     9        0.000000       -0.026185         1
        19        17        16        39     9      180.000000       11.428122         2
        19        17        16        39     9        0.000000       -0.469088         3
        19        17        16        39     9      180.000000        0.064444         4
        19        17        18        40     9        0.000000       -0.058457         1
        19        17        18        40     9      180.000000       11.871188         2
        19        17        18        40     9        0.000000       -0.485861         3
        19        17        18        40     9      180.000000        0.118039         4
        19        20        21        22     9        0.000000       -0.596326         1
        19        20        21        22     9      180.000000       -0.139868         2
        19        20        21        22     9        0.000000        0.412641         3
        19        20        21        22     9      180.000000        0.061647         4
        19        20        21        44     9        0.000000        0.025517         1
        19        20        21        44     9      180.000000       -0.041486         2
        19        20        21        44     9        0.000000        0.579007         3
        19        20        21        44     9      180.000000       -0.059327         4
        19        20        21        45     9        0.000000        0.025517         1
        19        20        21        45     9      180.000000       -0.041486         2
        19        20        21        45     9        0.000000        0.579007         3
        19        20        21        45     9      180.000000       -0.059327         4
        19        20        25        24     9        0.000000       -0.596326         1
        19        20        25        24     9      180.000000       -0.139868         2
        19        20        25        24     9        0.000000        0.412641         3
        19        20        25        24     9      180.000000        0.061647         4
        19        20        25        50     9        0.000000        0.025517         1
        19        20        25        50     9      180.000000       -0.041486         2
        19        20        25        50     9        0.000000        0.579007         3
        19        20        25        50     9      180.000000       -0.059327         4
        19        20        25        51     9        0.000000        0.025517         1
        19        20        25        51     9      180.000000       -0.041486         2
        19        20        25        51     9        0.000000        0.579007         3
        19        20        25        51     9      180.000000       -0.059327         4
        20        21        22        23     9        0.000000        1.393988         1
        20        21        22        23     9      180.000000       -0.692122         2
        20        21        22        23     9        0.000000        0.585221         3
        20        21        22        23     9      180.000000       -0.218913         4
        20        21        22        46     9        0.000000       -0.279621         1
        20        21        22        46     9      180.000000        0.019397         2
        20        21        22        46     9        0.000000        0.506432         3
        20        21        22        46     9      180.000000        0.072570         4
        20        21        22        47     9        0.000000       -0.279621         1
        20        21        22        47     9      180.000000        0.019397         2
        20        21        22        47     9        0.000000        0.506432         3
        20        21        22        47     9      180.000000        0.072570         4
        20        25        24        23     9        0.000000        1.393988         1
        20        25        24        23     9      180.000000       -0.692122         2
        20        25        24        23     9        0.000000        0.585221         3
        20        25        24        23     9      180.000000       -0.218913         4
        20        25        24        48     9        0.000000       -0.279621         1
        20        25        24        48     9      180.000000        0.019397         2
        20        25        24        48     9        0.000000        0.506432         3
        20        25        24        48     9      180.000000        0.072570         4
        20        25        24        49     9        0.000000       -0.279621         1
        20        25        24        49     9      180.000000        0.019397         2
        20        25        24        49     9        0.000000        0.506432         3
        20        25        24        49     9      180.000000        0.072570         4
        21        20        19        41     9        0.000000       -0.024711         1
        21        20        19        41     9      180.000000        0.044180         2
        21        20        19        41     9        0.000000        0.780037         3
        21        20        19        41     9      180.000000       -0.028019         4
        21        20        19        42     9        0.000000       -0.024711         1
        21        20        19        42     9      180.000000        0.044180         2
        21        20        19        42     9        0.000000        0.780037         3
        21        20        19        42     9      180.000000       -0.028019         4
        21        20        25        24     9        0.000000        1.805441         1
        21        20        25        24     9      180.000000       -1.655014         2
        21        20        25        24     9        0.000000        0.316234         3
        21        20        25        24     9      180.000000        0.033213         4
        21        20        25        50     9        0.000000       -0.015438         1
        21        20        25        50     9      180.000000        0.014511         2
        21        20        25        50     9        0.000000        0.456403         3
        21        20        25        50     9      180.000000       -0.053106         4
        21        20        25        51     9        0.000000       -0.015438         1
        21        20        25        51     9      180.000000        0.014511         2
        21        20        25        51     9        0.000000        0.456403         3
        21        20        25        51     9      180.000000       -0.053106         4
        21        22        23        24     9        0.000000        0.268541         1
        21        22        23        24     9      180.000000       -0.836174         2
        21        22        23        24     9        0.000000        0.702225         3
        21        22        23        24     9      180.000000       -0.048146         4
        22        21        20        25     9        0.000000        1.805441         1
        22        21        20        25     9      180.000000       -1.655014         2
        22        21        20        25     9        0.000000        0.316234         3
        22        21        20        25     9      180.000000        0.033213         4
        22        21        20        43     9        0.000000        1.475778         1
        22        21        20        43     9      180.000000       -0.514104         2
        22        21        20        43     9        0.000000        0.425373         3
        22        21        20        43     9      180.000000       -0.082988         4
        22        23        24        25     9        0.000000        0.268541         1
        22        23        24        25     9      180.000000       -0.836174         2
        22        23        24        25     9        0.000000        0.702225         3
        22        23        24        25     9      180.000000       -0.048146         4
        22        23        24        48     9        0.000000        0.000169         1
        22        23        24        48     9      180.000000        0.087931         2
        22        23        24        48     9        0.000000        0.664168         3
        22        23        24        48     9      180.000000        0.010380         4
        22        23        24        49     9        0.000000        0.000169         1
        22        23        24        49     9      180.000000        0.087931         2
        22        23        24        49     9        0.000000        0.664168         3
        22        23        24        49     9      180.000000        0.010380         4
        23        22        21        44     9        0.000000       -0.111928         1
        23        22        21        44     9      180.000000        0.005173         2
        23        22        21        44     9        0.000000        0.437461         3
        23        22        21        44     9      180.000000        0.062284         4
        23        22        21        45     9        0.000000       -0.111928         1
        23        22        21        45     9      180.000000        0.005173         2
        23        22        21        45     9        0.000000        0.437461         3
        23        22        21        45     9      180.000000        0.062284         4
        23        24        25        50     9        0.000000       -0.111928         1
        23        24        25        50     9      180.000000        0.005173         2
        23        24        25        50     9        0.000000        0.437461         3
        23        24        25        50     9      180.000000        0.062284         4
        23        24        25        51     9        0.000000       -0.111928         1
        23        24        25        51     9      180.000000        0.005173         2
        23        24        25        51     9        0.000000        0.437461         3
        23        24        25        51     9      180.000000        0.062284         4
        24        23        22        46     9        0.000000        0.000169         1
        24        23        22        46     9      180.000000        0.087931         2
        24        23        22        46     9        0.000000        0.664168         3
        24        23        22        46     9      180.000000        0.010380         4
        24        23        22        47     9        0.000000        0.000169         1
        24        23        22        47     9      180.000000        0.087931         2
        24        23        22        47     9        0.000000        0.664168         3
        24        23        22        47     9      180.000000        0.010380         4
        24        25        20        43     9        0.000000        1.475778         1
        24        25        20        43     9      180.000000       -0.514104         2
        24        25        20        43     9        0.000000        0.425373         3
        24        25        20        43     9      180.000000       -0.082988         4
        25        20        19        41     9        0.000000       -0.024711         1
        25        20        19        41     9      180.000000        0.044180         2
        25        20        19        41     9        0.000000        0.780037         3
        25        20        19        41     9      180.000000       -0.028019         4
        25        20        19        42     9        0.000000       -0.024711         1
        25        20        19        42     9      180.000000        0.044180         2
        25        20        19        42     9        0.000000        0.780037         3
        25        20        19        42     9      180.000000       -0.028019         4
        25        20        21        44     9        0.000000       -0.015438         1
        25        20        21        44     9      180.000000        0.014511         2
        25        20        21        44     9        0.000000        0.456403         3
        25        20        21        44     9      180.000000       -0.053106         4
        25        20        21        45     9        0.000000       -0.015438         1
        25        20        21        45     9      180.000000        0.014511         2
        25        20        21        45     9        0.000000        0.456403         3
        25        20        21        45     9      180.000000       -0.053106         4
        26         2         1        32     9        0.000000        0.099242         1
        26         2         1        32     9      180.000000       13.010820         2
        26         2         1        32     9        0.000000       -0.088171         3
        26         2         1        32     9      180.000000        0.124471         4
        26         2         3        33     9        0.000000        0.112483         1
        26         2         3        33     9      180.000000       13.797271         2
        26         2         3        33     9        0.000000       -0.046084         3
        26         2         3        33     9      180.000000        0.096956         4
        26        27        28        29     9        0.000000       -0.008731         1
        26        27        28        29     9      180.000000       30.675762         2
        26        27        28        29     9        0.000000       -6.235878         3
        26        27        28        29     9      180.000000       -0.577957         4
        26        27        28        31     9        0.000000        0.794003         1
        26        27        28        31     9      180.000000        7.214264         2
        26        27        28        31     9        0.000000        0.925426         3
        26        27        28        31     9      180.000000       -0.018385         4
        26        30        29        28     9        0.000000        0.002061         1
        26        30        29        28     9      180.000000       40.595377         2
        26        30        29        28     9        0.000000       -5.788740         3
        26        30        29        28     9      180.000000       -0.134456         4
        27        26        30        29     9        0.000000       -0.178511         1
        27        26        30        29     9      180.000000       30.630300         2
        27        26        30        29     9        0.000000       -8.274862         3
        27        26        30        29     9      180.000000        0.052941         4
        27        26        30        53     9        0.000000        0.172948         1
        27        26        30        53     9      180.000000       14.364895         2
        27        26        30        53     9        0.000000       -0.598837         3
        27        26        30        53     9      180.000000       -0.474058         4
        27        28        29        30     9        0.000000       -0.276722         1
        27        28        29        30     9      180.000000       27.880582         2
        27        28        29        30     9        0.000000       -4.429440         3
        27        28        29        30     9      180.000000        0.067514         4
        27        28        31        54     9        0.000000       -0.025261         1
        27        28        31        54     9      180.000000       -0.009689         2
        27        28        31        54     9        0.000000        0.183445         3
        27        28        31        54     9      180.000000        0.013058         4
        27        28        31        55     9        0.000000       -0.025261         1
        27        28        31        55     9      180.000000       -0.009689         2
        27        28        31        55     9        0.000000        0.183445         3
        27        28        31        55     9      180.000000        0.013058         4
        27        28        31        56     9        0.000000       -0.025261         1
        27        28        31        56     9      180.000000       -0.009689         2
        27        28        31        56     9        0.000000        0.183445         3
        27        28        31        56     9      180.000000        0.013058         4
        28        27        26        30     9        0.000000       -0.208129         1
        28        27        26        30     9      180.000000       30.785075         2
        28        27        26        30     9        0.000000       -8.550084         3
        28        27        26        30     9      180.000000       -0.035433         4
        28        29        30        53     9        0.000000        1.035130         1
        28        29        30        53     9      180.000000       28.012719         2
        28        29        30        53     9        0.000000       -0.176669         3
        28        29        30        53     9      180.000000       -0.056777         4
        29        28        27        52     9        0.000000        1.087919         1
        29        28        27        52     9      180.000000       12.299996         2
        29        28        27        52     9        0.000000        0.218777         3
        29        28        27        52     9      180.000000       -0.396293         4
        29        28        31        54     9        0.000000       -0.002235         1
        29        28        31        54     9      180.000000        0.002811         2
        29        28        31        54     9        0.000000        0.198678         3
        29        28        31        54     9      180.000000        0.004453         4
        29        28        31        55     9        0.000000       -0.002235         1
        29        28        31        55     9      180.000000        0.002811         2
        29        28        31        55     9        0.000000        0.198678         3
        29        28        31        55     9      180.000000        0.004453         4
        29        28        31        56     9        0.000000       -0.002235         1
        29        28        31        56     9      180.000000        0.002811         2
        29        28        31        56     9        0.000000        0.198678         3
        29        28        31        56     9      180.000000        0.004453         4
        30        26        27        52     9        0.000000       -0.011578         1
        30        26        27        52     9      180.000000       13.297212         2
        30        26        27        52     9        0.000000       -0.689861         3
        30        26        27        52     9      180.000000       -0.256961         4
        30        29        28        31     9        0.000000        0.590594         1
        30        29        28        31     9      180.000000       10.319130         2
        30        29        28        31     9        0.000000        0.796415         3
        30        29        28        31     9      180.000000       -0.114250         4
        31        28        27        52     9        0.000000       -0.503607         1
        31        28        27        52     9      180.000000        3.986425         2
        31        28        27        52     9        0.000000        0.085552         3
        31        28        27        52     9      180.000000        0.044196         4
        32         1         4        34     9        0.000000       -0.121925         1
        32         1         4        34     9      180.000000       12.764727         2
        32         1         4        34     9        0.000000       -0.651730         3
        32         1         4        34     9      180.000000        0.337548         4
        38        15        16        39     9        0.000000       -0.008913         1
        38        15        16        39     9      180.000000       12.566191         2
        38        15        16        39     9        0.000000       -0.661925         3
        38        15        16        39     9      180.000000        0.252906         4
        41        19        20        43     9        0.000000        0.000894         1
        41        19        20        43     9      180.000000        0.141111         2
        41        19        20        43     9        0.000000        0.589340         3
        41        19        20        43     9      180.000000       -0.059527         4
        42        19        20        43     9        0.000000        0.000894         1
        42        19        20        43     9      180.000000        0.141111         2
        42        19        20        43     9        0.000000        0.589340         3
        42        19        20        43     9      180.000000       -0.059527         4
        43        20        21        44     9        0.000000       -0.125994         1
        43        20        21        44     9      180.000000        0.256885         2
        43        20        21        44     9        0.000000        0.436981         3
        43        20        21        44     9      180.000000        0.031265         4
        43        20        21        45     9        0.000000       -0.125994         1
        43        20        21        45     9      180.000000        0.256885         2
        43        20        21        45     9        0.000000        0.436981         3
        43        20        21        45     9      180.000000        0.031265         4
        43        20        25        50     9        0.000000       -0.125994         1
        43        20        25        50     9      180.000000        0.256885         2
        43        20        25        50     9        0.000000        0.436981         3
        43        20        25        50     9      180.000000        0.031265         4
        43        20        25        51     9        0.000000       -0.125994         1
        43        20        25        51     9      180.000000        0.256885         2
        43        20        25        51     9        0.000000        0.436981         3
        43        20        25        51     9      180.000000        0.031265         4
        44        21        22        46     9        0.000000       -0.020457         1
        44        21        22        46     9      180.000000       -0.033474         2
        44        21        22        46     9        0.000000        0.508717         3
        44        21        22        46     9      180.000000       -0.009291         4
        44        21        22        47     9        0.000000       -0.020457         1
        44        21        22        47     9      180.000000       -0.033474         2
        44        21        22        47     9        0.000000        0.508717         3
        44        21        22        47     9      180.000000       -0.009291         4
        45        21        22        46     9        0.000000       -0.020457         1
        45        21        22        46     9      180.000000       -0.033474         2
        45        21        22        46     9        0.000000        0.508717         3
        45        21        22        46     9      180.000000       -0.009291         4
        45        21        22        47     9        0.000000       -0.020457         1
        45        21        22        47     9      180.000000       -0.033474         2
        45        21        22        47     9        0.000000        0.508717         3
        45        21        22        47     9      180.000000       -0.009291         4
        48        24        25        50     9        0.000000       -0.020457         1
        48        24        25        50     9      180.000000       -0.033474         2
        48        24        25        50     9        0.000000        0.508717         3
        48        24        25        50     9      180.000000       -0.009291         4
        48        24        25        51     9        0.000000       -0.020457         1
        48        24        25        51     9      180.000000       -0.033474         2
        48        24        25        51     9        0.000000        0.508717         3
        48        24        25        51     9      180.000000       -0.009291         4
        49        24        25        50     9        0.000000       -0.020457         1
        49        24        25        50     9      180.000000       -0.033474         2
        49        24        25        50     9        0.000000        0.508717         3
        49        24        25        50     9      180.000000       -0.009291         4
        49        24        25        51     9        0.000000       -0.020457         1
        49        24        25        51     9      180.000000       -0.033474         2
        49        24        25        51     9        0.000000        0.508717         3
        49        24        25        51     9      180.000000       -0.009291         4

[ pairs ]
;       ai        aj funct
         1         6     1
         1         9     1
         1        27     1
         1        30     1
         1        33     1
         2         5     1
         2         7     1
         2        28     1
         2        29     1
         2        34     1
         2        52     1
         2        53     1
         3         4     1
         3         8     1
         3         9     1
         3        27     1
         3        30     1
         3        32     1
         3        35     1
         4         7     1
         4         8     1
         4        10     1
         4        26     1
         5        11     1
         5        12     1
         5        32     1
         5        33     1
         5        35     1
         6        10     1
         6        26     1
         6        34     1
         7        10     1
         7        33     1
         8        11     1
         8        12     1
         9        13     1
         9        14     1
         9        34     1
         9        35     1
         9        36     1
         9        37     1
        10        15     1
        10        18     1
        11        16     1
        11        18     1
        11        37     1
        11        38     1
        12        15     1
        12        17     1
        12        36     1
        12        40     1
        13        16     1
        13        19     1
        13        36     1
        13        38     1
        14        17     1
        14        37     1
        14        39     1
        14        40     1
        15        18     1
        15        19     1
        15        36     1
        16        20     1
        16        40     1
        16        41     1
        16        42     1
        17        21     1
        17        25     1
        17        38     1
        17        43     1
        18        20     1
        18        37     1
        18        39     1
        18        41     1
        18        42     1
        19        22     1
        19        24     1
        19        39     1
        19        40     1
        19        44     1
        19        45     1
        19        50     1
        19        51     1
        20        23     1
        20        46     1
        20        47     1
        20        48     1
        20        49     1
        21        24     1
        21        41     1
        21        42     1
        21        50     1
        21        51     1
        22        25     1
        22        43     1
        22        48     1
        22        49     1
        23        44     1
        23        45     1
        23        50     1
        23        51     1
        24        43     1
        24        46     1
        24        47     1
        25        41     1
        25        42     1
        25        44     1
        25        45     1
        26        31     1
        26        32     1
        26        33     1
        27        53     1
        27        54     1
        27        55     1
        27        56     1
        28        53     1
        29        52     1
        29        54     1
        29        55     1
        29        56     1
        30        31     1
        30        52     1
        31        52     1
        32        34     1
        38        39     1
        41        43     1
        42        43     1
        43        44     1
        43        45     1
        43        50     1
        43        51     1
        44        46     1
        44        47     1
        45        46     1
        45        47     1
        48        50     1
        48        51     1
        49        50     1
        49        51     1
