; ITP file created by ByteFF-ML, 2025-12-06 08:14:13.542245

[ atomtypes ]
;name           bonded.type        at.num        mass        charge   ptype           sigma         epsilon
 c0bf                                   6      0.0000       0.00000       A     3.31406e-01     4.12747e-01
 c1bf                                   6      0.0000       0.00000       A     3.31525e-01     4.15216e-01
 c2bf                                   6      0.0000       0.00000       A     3.31467e-01     4.12405e-01
 c3bf                                   6      0.0000       0.00000       A     3.31472e-01     4.12993e-01
 c4bf                                   6      0.0000       0.00000       A     3.31520e-01     4.11992e-01
 c5bf                                   6      0.0000       0.00000       A     3.31536e-01     4.12689e-01
 n6bf                                   7      0.0000       0.00000       A     3.20403e-01     8.53564e-01
 n7bf                                   7      0.0000       0.00000       A     3.38370e-01     3.92979e-01
 c8bf                                   6      0.0000       0.00000       A     3.31620e-01     4.14723e-01
 c9bf                                   6      0.0000       0.00000       A     3.31059e-01     4.13664e-01
 n10bf                                  7      0.0000       0.00000       A     3.20376e-01     8.55899e-01
 c11bf                                  6      0.0000       0.00000       A     3.31306e-01     4.11917e-01
 c12bf                                  6      0.0000       0.00000       A     3.31510e-01     4.13055e-01
 c13bf                                  6      0.0000       0.00000       A     3.31590e-01     4.12179e-01
 c14bf                                  6      0.0000       0.00000       A     3.31457e-01     4.13497e-01
 c15bf                                  6      0.0000       0.00000       A     3.31456e-01     4.14408e-01
 c16bf                                  6      0.0000       0.00000       A     3.31385e-01     4.12455e-01
 c17bf                                  6      0.0000       0.00000       A     3.31403e-01     4.13537e-01
 c18bf                                  6      0.0000       0.00000       A     3.39680e-01     4.51466e-01
 n19bf                                  7      0.0000       0.00000       A     2.58565e-01     1.06457e+01
 c20bf                                  6      0.0000       0.00000       A     3.39803e-01     4.50476e-01
 c21bf                                  6      0.0000       0.00000       A     3.39660e-01     4.50650e-01
 c22bf                                  6      0.0000       0.00000       A     3.40007e-01     4.50856e-01
 c23bf                                  6      0.0000       0.00000       A     3.39660e-01     4.50650e-01
 c24bf                                  6      0.0000       0.00000       A     3.39803e-01     4.50476e-01
 n25bf                                  7      0.0000       0.00000       A     3.20795e-01     8.52536e-01
 c26bf                                  6      0.0000       0.00000       A     3.31486e-01     4.13535e-01
 c27bf                                  6      0.0000       0.00000       A     3.31449e-01     4.12953e-01
 n28bf                                  7      0.0000       0.00000       A     3.38557e-01     3.91557e-01
 n29bf                                  7      0.0000       0.00000       A     3.38512e-01     3.90523e-01
 h30bf                                  1      0.0000       0.00000       A     2.62560e-01     6.74898e-02
 h31bf                                  1      0.0000       0.00000       A     2.62359e-01     6.77531e-02
 h32bf                                  1      0.0000       0.00000       A     2.62565e-01     6.67460e-02
 h33bf                                  1      0.0000       0.00000       A     1.10662e-01     4.14451e-02
 h34bf                                  1      0.0000       0.00000       A     1.10899e-01     4.15233e-02
 h35bf                                  1      0.0000       0.00000       A     2.62647e-01     6.66471e-02
 h36bf                                  1      0.0000       0.00000       A     2.62485e-01     6.72408e-02
 h37bf                                  1      0.0000       0.00000       A     2.62648e-01     6.74100e-02
 h38bf                                  1      0.0000       0.00000       A     2.62452e-01     6.78776e-02
 h39bf                                  1      0.0000       0.00000       A     1.87833e-01     8.63729e-02
 h40bf                                  1      0.0000       0.00000       A     1.87833e-01     8.63729e-02
 h41bf                                  1      0.0000       0.00000       A     1.10702e-01     4.18154e-02
 h42bf                                  1      0.0000       0.00000       A     1.88382e-01     8.65995e-02
 h43bf                                  1      0.0000       0.00000       A     1.88382e-01     8.65995e-02
 h44bf                                  1      0.0000       0.00000       A     2.59967e-01     8.84542e-02
 h45bf                                  1      0.0000       0.00000       A     2.59967e-01     8.84542e-02
 h46bf                                  1      0.0000       0.00000       A     2.60071e-01     8.65532e-02
 h47bf                                  1      0.0000       0.00000       A     2.60071e-01     8.65532e-02
 h48bf                                  1      0.0000       0.00000       A     2.59967e-01     8.84542e-02
 h49bf                                  1      0.0000       0.00000       A     2.59967e-01     8.84542e-02
 h50bf                                  1      0.0000       0.00000       A     1.88382e-01     8.65995e-02
 h51bf                                  1      0.0000       0.00000       A     1.88382e-01     8.65995e-02
 h52bf                                  1      0.0000       0.00000       A     2.53608e-01     6.78681e-02
 h53bf                                  1      0.0000       0.00000       A     2.53886e-01     6.72025e-02

[ moleculetype ]
;name             nrexcl
 16_docked             3

[ atoms ]
;       nr            type      resi   res      atom      cgnr      charge          mass ; qtot
         1            c0bf         1   UNL        c0         1    -0.14631       12.0110 ; qtot   -0.146
         2            c1bf         1   UNL        c1         2     0.04208       12.0110 ; qtot   -0.104
         3            c2bf         1   UNL        c2         3    -0.12652       12.0110 ; qtot   -0.231
         4            c3bf         1   UNL        c3         4    -0.01699       12.0110 ; qtot   -0.248
         5            c4bf         1   UNL        c4         5    -0.21708       12.0110 ; qtot   -0.465
         6            c5bf         1   UNL        c5         6    -0.00300       12.0110 ; qtot   -0.468
         7            n6bf         1   UNL        n6         7    -0.06727       14.0070 ; qtot   -0.535
         8            n7bf         1   UNL        n7         8    -0.50995       14.0070 ; qtot   -1.045
         9            c8bf         1   UNL        c8         9     0.42243       12.0110 ; qtot   -0.623
        10            c9bf         1   UNL        c9        10    -0.09417       12.0110 ; qtot   -0.717
        11           n10bf         1   UNL       n10        11    -0.22773       14.0070 ; qtot   -0.945
        12           c11bf         1   UNL       c11        12    -0.19556       12.0110 ; qtot   -1.140
        13           c12bf         1   UNL       c12        13    -0.10699       12.0110 ; qtot   -1.247
        14           c13bf         1   UNL       c13        14    -0.00399       12.0110 ; qtot   -1.251
        15           c14bf         1   UNL       c14        15    -0.10608       12.0110 ; qtot   -1.357
        16           c15bf         1   UNL       c15        16    -0.06975       12.0110 ; qtot   -1.427
        17           c16bf         1   UNL       c16        17    -0.21681       12.0110 ; qtot   -1.644
        18           c17bf         1   UNL       c17        18     0.00617       12.0110 ; qtot   -1.638
        19           c18bf         1   UNL       c18        19     0.19074       12.0110 ; qtot   -1.447
        20           n19bf         1   UNL       n19        20    -0.68619       14.0070 ; qtot   -2.133
        21           c20bf         1   UNL       c20        21     0.11169       12.0110 ; qtot   -2.021
        22           c21bf         1   UNL       c21        22    -0.10586       12.0110 ; qtot   -2.127
        23           c22bf         1   UNL       c22        23    -0.08859       12.0110 ; qtot   -2.216
        24           c23bf         1   UNL       c23        24    -0.10586       12.0110 ; qtot   -2.322
        25           c24bf         1   UNL       c24        25     0.11169       12.0110 ; qtot   -2.210
        26           n25bf         1   UNL       n25        26     0.21112       14.0070 ; qtot   -1.999
        27           c26bf         1   UNL       c26        27    -0.18261       12.0110 ; qtot   -2.181
        28           c27bf         1   UNL       c27        28     0.18979       12.0110 ; qtot   -1.992
        29           n28bf         1   UNL       n28        29    -0.34885       14.0070 ; qtot   -2.340
        30           n29bf         1   UNL       n29        30    -0.19415       14.0070 ; qtot   -2.535
        31           h30bf         1   UNL       h30        31     0.13752        1.0080 ; qtot   -2.397
        32           h31bf         1   UNL       h31        32     0.14310        1.0080 ; qtot   -2.254
        33           h32bf         1   UNL       h32        33     0.13116        1.0080 ; qtot   -2.123
        34           h33bf         1   UNL       h33        34     0.37857        1.0080 ; qtot   -1.744
        35           h34bf         1   UNL       h34        35     0.35537        1.0080 ; qtot   -1.389
        36           h35bf         1   UNL       h35        36     0.20407        1.0080 ; qtot   -1.185
        37           h36bf         1   UNL       h36        37     0.13079        1.0080 ; qtot   -1.054
        38           h37bf         1   UNL       h37        38     0.12413        1.0080 ; qtot   -0.930
        39           h38bf         1   UNL       h38        39     0.12618        1.0080 ; qtot   -0.804
        40           h39bf         1   UNL       h39        40     0.09866        1.0080 ; qtot   -0.705
        41           h40bf         1   UNL       h40        41     0.09866        1.0080 ; qtot   -0.606
        42           h41bf         1   UNL       h41        42     0.50046        1.0080 ; qtot   -0.106
        43           h42bf         1   UNL       h42        43     0.09543        1.0080 ; qtot   -0.011
        44           h43bf         1   UNL       h43        44     0.09543        1.0080 ; qtot    0.085
        45           h44bf         1   UNL       h44        45     0.08552        1.0080 ; qtot    0.170
        46           h45bf         1   UNL       h45        46     0.08552        1.0080 ; qtot    0.256
        47           h46bf         1   UNL       h46        47     0.07775        1.0080 ; qtot    0.334
        48           h47bf         1   UNL       h47        48     0.07775        1.0080 ; qtot    0.411
        49           h48bf         1   UNL       h48        49     0.08552        1.0080 ; qtot    0.497
        50           h49bf         1   UNL       h49        50     0.08552        1.0080 ; qtot    0.583
        51           h50bf         1   UNL       h50        51     0.09543        1.0080 ; qtot    0.678
        52           h51bf         1   UNL       h51        52     0.09543        1.0080 ; qtot    0.773
        53           h52bf         1   UNL       h52        53     0.17075        1.0080 ; qtot    0.944
        54           h53bf         1   UNL       h53        54     0.05588        1.0080 ; qtot    1.000

[ bonds ]
;       ai        aj funct               r               k
         1         2     1        0.141705   262601.798584
         1         4     1        0.138672   343295.437939
         1        31     1        0.108327   326664.446533
         2         3     1        0.139022   315914.881250
         2        26     1        0.142293   230712.154492
         3         6     1        0.140188   306013.786426
         3        32     1        0.108365   325867.561035
         4         5     1        0.141023   297026.511523
         4        33     1        0.108459   323500.424219
         5         6     1        0.141949   248054.992822
         5         9     1        0.144280   224154.812158
         6         7     1        0.137154   284488.352637
         7         8     1        0.135759   253529.689404
         7        34     1        0.100949   434088.263477
         8         9     1        0.133497   344504.952051
         9        10     1        0.145193   253459.998633
        10        11     1        0.139180   262347.346826
        10        12     1        0.138454   347289.441846
        11        14     1        0.138201   275860.155029
        11        35     1        0.101035   429177.375195
        12        13     1        0.143536   250057.076660
        12        36     1        0.108050   337425.503516
        13        14     1        0.142955   237535.976562
        13        18     1        0.140443   303438.496631
        14        15     1        0.140156   305366.522852
        15        16     1        0.138900   337804.831738
        15        37     1        0.108539   321997.667480
        16        17     1        0.141819   266033.143359
        16        38     1        0.108652   318090.208838
        17        18     1        0.139677   302830.509131
        17        19     1        0.149908   204446.279858
        18        39     1        0.108666   317086.370605
        19        20     1        0.153197   111198.010181
        19        40     1        0.109096   309012.379346
        19        41     1        0.109096   309012.379346
        20        21     1        0.152145   128071.897803
        20        25     1        0.152145   128071.897803
        20        42     1        0.102494   385069.092529
        21        22     1        0.152748   189250.486768
        21        43     1        0.109106   309880.411230
        21        44     1        0.109106   309880.411230
        22        23     1        0.153779   184046.126025
        22        45     1        0.109388   302488.362939
        22        46     1        0.109388   302488.362939
        23        24     1        0.153779   184046.126025
        23        47     1        0.109386   302361.315820
        23        48     1        0.109386   302361.315820
        24        25     1        0.152748   189250.486768
        24        49     1        0.109388   302488.362939
        24        50     1        0.109388   302488.362939
        25        51     1        0.109106   309880.436768
        25        52     1        0.109106   309880.436768
        26        27     1        0.136377   289175.152783
        26        30     1        0.136350   176072.240234
        27        28     1        0.137897   355992.871777
        27        53     1        0.107919   344410.158301
        28        29     1        0.136647   256846.959912
        28        54     1        0.108095   339590.360889
        29        30     1        0.130337   332242.313037

[ angles ]
;       ai        aj        ak funct           theta             cth
         1         2         3     1      121.956543      526.782397
         1         2        26     1      118.723618      630.891925
         1         4         5     1      119.077126      678.143430
         1         4        33     1      120.248398      424.283910
         2         1         4     1      120.571732      635.530166
         2         1        31     1      119.219093      457.749206
         2         3         6     1      116.462120      747.901236
         2         3        32     1      121.086815      431.907694
         2        26        27     1      129.307083      490.828765
         2        26        30     1      120.517776      614.763453
         3         2        26     1      119.156693      485.046588
         3         6         5     1      122.980423      649.787279
         3         6         7     1      131.337570      454.315550
         4         1        31     1      120.428268      418.684994
         4         5         6     1      118.829758      696.861046
         4         5         9     1      136.388214      475.312193
         5         4        33     1      121.015762      437.982430
         5         6         7     1      105.797958      167.360000
         5         9         8     1      110.627586      347.415997
         5         9        10     1      129.183578      399.863059
         6         3        32     1      122.351036      420.182171
         6         5         9     1      104.641281      431.053287
         6         7         8     1      112.686295      420.144695
         6         7        34     1      128.506180      380.147262
         7         8         9     1      106.495262      586.960308
         8         7        34     1      118.714035      478.428870
         8         9        10     1      120.099777      559.250884
         9        10        11     1      120.414673      507.245551
         9        10        12     1      131.034760      447.502696
        10        11        14     1      109.440186      409.573864
        10        11        35     1      123.215820      379.022543
        10        12        13     1      107.464355      383.437239
        10        12        36     1      125.246742      393.800518
        11        10        12     1      108.673904      167.360000
        11        14        13     1      107.344810      298.221055
        11        14        15     1      130.709946      469.443893
        12        13        14     1      106.916115      360.114421
        12        13        18     1      134.237762      411.179095
        13        12        36     1      127.224655      385.462587
        13        14        15     1      122.047226      612.367944
        13        18        17     1      119.376549      655.622253
        13        18        39     1      119.879227      440.646397
        14        11        35     1      125.853867      394.838697
        14        13        18     1      118.799820      745.865546
        14        15        16     1      117.639648      794.148814
        14        15        37     1      121.576096      439.900650
        15        16        17     1      121.524864      583.498880
        15        16        38     1      118.960594      421.153092
        16        15        37     1      120.828659      425.915061
        16        17        18     1      120.372581      616.559733
        16        17        19     1      119.635887      531.878742
        17        16        38     1      119.626991      401.380985
        17        18        39     1      120.674217      396.461005
        17        19        20     1      111.410690      569.172498
        17        19        40     1      112.377319      462.887783
        17        19        41     1      112.377319      462.887783
        18        17        19     1      120.018288      462.537478
        19        20        21     1      112.704857      588.015118
        19        20        25     1      112.704857      588.015118
        19        20        42     1      105.970398      490.093232
        20        19        40     1      105.727821      544.833079
        20        19        41     1      105.727821      544.833079
        20        21        22     1      110.669518      713.348889
        20        21        43     1      106.583885      517.691410
        20        21        44     1      106.583885      517.691410
        20        25        24     1      110.669518      713.348889
        20        25        51     1      106.583885      517.691410
        20        25        52     1      106.583885      517.691410
        21        20        25     1      111.317604      604.395259
        21        20        42     1      106.781754      499.371087
        21        22        23     1      111.364792      654.236737
        21        22        45     1      108.713943      507.855632
        21        22        46     1      108.713943      507.855632
        22        21        43     1      112.117599      482.200988
        22        21        44     1      112.117599      482.200988
        22        23        24     1      110.735153      610.700243
        22        23        47     1      109.863098      503.206027
        22        23        48     1      109.863098      503.206027
        23        22        45     1      110.716553      488.430479
        23        22        46     1      110.716568      488.430479
        23        24        25     1      111.364792      654.236737
        23        24        49     1      110.716568      488.430479
        23        24        50     1      110.716568      488.430479
        24        23        47     1      109.863098      503.206027
        24        23        48     1      109.863098      503.206027
        24        25        51     1      112.117599      482.200988
        24        25        52     1      112.117599      482.200988
        25        20        42     1      106.781754      499.371087
        25        24        49     1      108.713943      507.855632
        25        24        50     1      108.713943      507.855632
        26        27        28     1      104.283554      176.205879
        26        27        53     1      123.038109      480.067714
        26        30        29     1      107.519432      713.904066
        27        26        30     1      110.205124      167.360000
        27        28        29     1      108.554245      311.516982
        27        28        54     1      129.403931      364.472520
        28        27        53     1      132.957184      310.464439
        28        29        30     1      109.080093      406.726828
        29        28        54     1      121.745667      410.782025
        40        19        41     1      108.533302      349.262713
        43        21        44     1      108.492310      346.342034
        45        22        46     1      106.356018      362.065967
        47        23        48     1      106.540710      364.941732
        49        24        50     1      106.356018      362.065967
        51        25        52     1      108.492310      346.342066

[ dihedrals ] ; propers for gromacs 4.5 or higher, use funct 9
;       ai        aj        ak        al funct           phase               k        pn
         1         2         3         6     9        0.000000       -0.143791         1
         1         2         3         6     9      180.000000       19.758351         2
         1         2         3         6     9        0.000000       -1.487532         3
         1         2         3         6     9      180.000000       -0.462672         4
         1         2         3        32     9        0.000000        0.070822         1
         1         2         3        32     9      180.000000       13.769017         2
         1         2         3        32     9        0.000000       -0.509702         3
         1         2         3        32     9      180.000000        0.030788         4
         1         2        26        27     9        0.000000        0.116534         1
         1         2        26        27     9      180.000000        2.134451         2
         1         2        26        27     9        0.000000        0.140470         3
         1         2        26        27     9      180.000000       -0.184564         4
         1         2        26        30     9        0.000000        0.011980         1
         1         2        26        30     9      180.000000        3.277964         2
         1         2        26        30     9        0.000000        0.019125         3
         1         2        26        30     9      180.000000        0.031380         4
         1         4         5         6     9        0.000000        0.132646         1
         1         4         5         6     9      180.000000       19.794047         2
         1         4         5         6     9        0.000000       -2.395592         3
         1         4         5         6     9      180.000000       -0.480972         4
         1         4         5         9     9        0.000000       -0.030764         1
         1         4         5         9     9      180.000000       12.416362         2
         1         4         5         9     9        0.000000       -0.463898         3
         1         4         5         9     9      180.000000       -0.012960         4
         2         1         4         5     9        0.000000       -0.024256         1
         2         1         4         5     9      180.000000       20.674578         2
         2         1         4         5     9        0.000000       -1.755236         3
         2         1         4         5     9      180.000000       -0.385988         4
         2         1         4        33     9        0.000000        0.051961         1
         2         1         4        33     9      180.000000       15.731871         2
         2         1         4        33     9        0.000000       -0.404131         3
         2         1         4        33     9      180.000000        0.097797         4
         2         3         6         5     9        0.000000       -0.206177         1
         2         3         6         5     9      180.000000       16.222782         2
         2         3         6         5     9        0.000000       -1.567896         3
         2         3         6         5     9      180.000000       -0.302650         4
         2         3         6         7     9        0.000000        0.140447         1
         2         3         6         7     9      180.000000       14.480446         2
         2         3         6         7     9        0.000000       -0.246524         3
         2         3         6         7     9      180.000000       -0.282543         4
         2        26        27        28     9        0.000000        0.905308         1
         2        26        27        28     9      180.000000        8.945293         2
         2        26        27        28     9        0.000000        0.481931         3
         2        26        27        28     9      180.000000       -0.193494         4
         2        26        27        53     9        0.000000       -0.156818         1
         2        26        27        53     9      180.000000        4.455262         2
         2        26        27        53     9        0.000000        0.116431         3
         2        26        27        53     9      180.000000        0.087239         4
         2        26        30        29     9        0.000000        0.568632         1
         2        26        30        29     9      180.000000       15.208364         2
         2        26        30        29     9        0.000000        0.522652         3
         2        26        30        29     9      180.000000       -0.415039         4
         3         2         1         4     9        0.000000       -0.036738         1
         3         2         1         4     9      180.000000       16.131495         2
         3         2         1         4     9        0.000000       -1.188813         3
         3         2         1         4     9      180.000000       -0.290008         4
         3         2         1        31     9        0.000000       -0.037166         1
         3         2         1        31     9      180.000000       12.128813         2
         3         2         1        31     9        0.000000       -0.590861         3
         3         2         1        31     9      180.000000        0.133225         4
         3         2        26        27     9        0.000000        0.085290         1
         3         2        26        27     9      180.000000        2.068359         2
         3         2        26        27     9        0.000000        0.129250         3
         3         2        26        27     9      180.000000       -0.188360         4
         3         2        26        30     9        0.000000       -0.009524         1
         3         2        26        30     9      180.000000        3.133952         2
         3         2        26        30     9        0.000000       -0.137791         3
         3         2        26        30     9      180.000000        0.046693         4
         3         6         5         4     9        0.000000       -0.247899         1
         3         6         5         4     9      180.000000       10.028022         2
         3         6         5         4     9        0.000000       -1.743465         3
         3         6         5         4     9      180.000000        0.011677         4
         3         6         5         9     9        0.000000       -0.016524         1
         3         6         5         9     9      180.000000       10.778410         2
         3         6         5         9     9        0.000000       -2.006208         3
         3         6         5         9     9      180.000000       -0.028252         4
         3         6         7         8     9        0.000000        1.180621         1
         3         6         7         8     9      180.000000        5.168634         2
         3         6         7         8     9        0.000000        0.140984         3
         3         6         7         8     9      180.000000       -0.033703         4
         3         6         7        34     9        0.000000       -0.561768         1
         3         6         7        34     9      180.000000        1.206136         2
         3         6         7        34     9        0.000000       -0.012161         3
         3         6         7        34     9      180.000000       -0.020289         4
         4         1         2        26     9        0.000000        0.296532         1
         4         1         2        26     9      180.000000       16.386740         2
         4         1         2        26     9        0.000000        0.257744         3
         4         1         2        26     9      180.000000       -0.318806         4
         4         5         6         7     9        0.000000        0.406985         1
         4         5         6         7     9      180.000000        9.734023         2
         4         5         6         7     9        0.000000       -1.754991         3
         4         5         6         7     9      180.000000        0.056952         4
         4         5         9         8     9        0.000000       -0.084851         1
         4         5         9         8     9      180.000000        4.616043         2
         4         5         9         8     9        0.000000       -1.043443         3
         4         5         9         8     9      180.000000        0.118068         4
         4         5         9        10     9        0.000000        0.185223         1
         4         5         9        10     9      180.000000        5.964516         2
         4         5         9        10     9        0.000000        0.441431         3
         4         5         9        10     9      180.000000       -0.090724         4
         5         4         1        31     9        0.000000        0.093788         1
         5         4         1        31     9      180.000000       16.529992         2
         5         4         1        31     9        0.000000       -0.438273         3
         5         4         1        31     9      180.000000        0.017476         4
         5         6         3        32     9        0.000000        0.122699         1
         5         6         3        32     9      180.000000       11.702166         2
         5         6         3        32     9        0.000000       -0.314097         3
         5         6         3        32     9      180.000000        0.050602         4
         5         6         7         8     9        0.000000        0.505402         1
         5         6         7         8     9      180.000000       23.360456         2
         5         6         7         8     9        0.000000       -4.757645         3
         5         6         7         8     9      180.000000       -1.099311         4
         5         6         7        34     9        0.000000        0.706025         1
         5         6         7        34     9      180.000000        1.422645         2
         5         6         7        34     9        0.000000        0.430287         3
         5         6         7        34     9      180.000000        0.057420         4
         5         9         8         7     9        0.000000       -0.393067         1
         5         9         8         7     9      180.000000       37.646220         2
         5         9         8         7     9        0.000000       -4.093058         3
         5         9         8         7     9      180.000000        0.002018         4
         5         9        10        11     9        0.000000        0.768166         1
         5         9        10        11     9      180.000000        3.071604         2
         5         9        10        11     9        0.000000        0.347477         3
         5         9        10        11     9      180.000000       -0.059964         4
         5         9        10        12     9        0.000000       -0.070582         1
         5         9        10        12     9      180.000000        2.254147         2
         5         9        10        12     9        0.000000       -0.172839         3
         5         9        10        12     9      180.000000       -0.104633         4
         6         3         2        26     9        0.000000        0.277506         1
         6         3         2        26     9      180.000000       22.052050         2
         6         3         2        26     9        0.000000        0.444119         3
         6         3         2        26     9      180.000000       -1.109096         4
         6         5         4        33     9        0.000000        0.226504         1
         6         5         4        33     9      180.000000       13.324127         2
         6         5         4        33     9        0.000000       -0.397261         3
         6         5         4        33     9      180.000000       -0.026328         4
         6         5         9         8     9        0.000000       -0.441245         1
         6         5         9         8     9      180.000000       29.961809         2
         6         5         9         8     9        0.000000       -9.784885         3
         6         5         9         8     9      180.000000       -0.113142         4
         6         5         9        10     9        0.000000        1.036290         1
         6         5         9        10     9      180.000000       16.832830         2
         6         5         9        10     9        0.000000       -0.168949         3
         6         5         9        10     9      180.000000       -1.055659         4
         6         7         8         9     9        0.000000        0.001793         1
         6         7         8         9     9      180.000000       21.169869         2
         6         7         8         9     9        0.000000       -2.155682         3
         6         7         8         9     9      180.000000       -0.948458         4
         7         6         3        32     9        0.000000       -0.060068         1
         7         6         3        32     9      180.000000       10.920949         2
         7         6         3        32     9        0.000000       -0.010028         3
         7         6         3        32     9      180.000000        0.086175         4
         7         6         5         9     9        0.000000        0.305600         1
         7         6         5         9     9      180.000000       17.087165         2
         7         6         5         9     9        0.000000       -5.385646         3
         7         6         5         9     9      180.000000       -0.315747         4
         7         8         9        10     9        0.000000        0.786148         1
         7         8         9        10     9      180.000000       31.731506         2
         7         8         9        10     9        0.000000        1.326279         3
         7         8         9        10     9      180.000000       -1.208969         4
         8         9        10        11     9        0.000000        0.539428         1
         8         9        10        11     9      180.000000        3.785728         2
         8         9        10        11     9        0.000000       -0.325839         3
         8         9        10        11     9      180.000000        0.116329         4
         8         9        10        12     9        0.000000        0.657073         1
         8         9        10        12     9      180.000000        2.918871         2
         8         9        10        12     9        0.000000        0.344699         3
         8         9        10        12     9      180.000000       -0.118837         4
         9         5         4        33     9        0.000000        0.037862         1
         9         5         4        33     9      180.000000        9.482351         2
         9         5         4        33     9        0.000000       -0.016754         3
         9         5         4        33     9      180.000000        0.116486         4
         9         8         7        34     9        0.000000        1.778576         1
         9         8         7        34     9      180.000000        4.156347         2
         9         8         7        34     9        0.000000        0.399952         3
         9         8         7        34     9      180.000000       -0.123393         4
         9        10        11        14     9        0.000000        1.016913         1
         9        10        11        14     9      180.000000       10.893483         2
         9        10        11        14     9        0.000000        0.597977         3
         9        10        11        14     9      180.000000       -0.510303         4
         9        10        11        35     9        0.000000       -0.731223         1
         9        10        11        35     9      180.000000        1.551980         2
         9        10        11        35     9        0.000000       -0.019945         3
         9        10        11        35     9      180.000000       -0.089541         4
         9        10        12        13     9        0.000000        0.330131         1
         9        10        12        13     9      180.000000       19.922010         2
         9        10        12        13     9        0.000000       -0.051986         3
         9        10        12        13     9      180.000000       -1.494159         4
         9        10        12        36     9        0.000000       -0.093761         1
         9        10        12        36     9      180.000000       12.711677         2
         9        10        12        36     9        0.000000       -0.290686         3
         9        10        12        36     9      180.000000       -0.047875         4
        10        11        14        13     9        0.000000       -0.265782         1
        10        11        14        13     9      180.000000       18.548794         2
        10        11        14        13     9        0.000000       -3.718642         3
        10        11        14        13     9      180.000000       -0.568234         4
        10        11        14        15     9        0.000000        0.342725         1
        10        11        14        15     9      180.000000        3.578985         2
        10        11        14        15     9        0.000000        0.671999         3
        10        11        14        15     9      180.000000        0.060759         4
        10        12        13        14     9        0.000000       -0.189760         1
        10        12        13        14     9      180.000000       26.545747         2
        10        12        13        14     9        0.000000       -7.734337         3
        10        12        13        14     9      180.000000       -0.101177         4
        10        12        13        18     9        0.000000        0.333904         1
        10        12        13        18     9      180.000000        4.966556         2
        10        12        13        18     9        0.000000       -0.021350         3
        10        12        13        18     9      180.000000       -0.127696         4
        11        10        12        13     9        0.000000       -0.384049         1
        11        10        12        13     9      180.000000       30.847781         2
        11        10        12        13     9        0.000000       -5.882406         3
        11        10        12        13     9      180.000000       -0.738096         4
        11        10        12        36     9        0.000000       -0.208855         1
        11        10        12        36     9      180.000000       15.439502         2
        11        10        12        36     9        0.000000       -0.451777         3
        11        10        12        36     9      180.000000       -0.226957         4
        11        14        13        12     9        0.000000        0.336582         1
        11        14        13        12     9      180.000000       18.386561         2
        11        14        13        12     9        0.000000       -5.273211         3
        11        14        13        12     9      180.000000       -0.354630         4
        11        14        13        18     9        0.000000        0.315759         1
        11        14        13        18     9      180.000000       10.854582         2
        11        14        13        18     9        0.000000       -1.621106         3
        11        14        13        18     9      180.000000       -0.113402         4
        11        14        15        16     9        0.000000        0.233748         1
        11        14        15        16     9      180.000000       15.245659         2
        11        14        15        16     9        0.000000       -0.036583         3
        11        14        15        16     9      180.000000       -0.222307         4
        11        14        15        37     9        0.000000       -0.141852         1
        11        14        15        37     9      180.000000       11.257604         2
        11        14        15        37     9        0.000000       -0.030213         3
        11        14        15        37     9      180.000000        0.130882         4
        12        10        11        14     9        0.000000        0.063635         1
        12        10        11        14     9      180.000000       18.838630         2
        12        10        11        14     9        0.000000       -5.407668         3
        12        10        11        14     9      180.000000       -0.541921         4
        12        10        11        35     9        0.000000       -1.128438         1
        12        10        11        35     9      180.000000        2.375408         2
        12        10        11        35     9        0.000000        0.273838         3
        12        10        11        35     9      180.000000        0.242639         4
        12        13        14        15     9        0.000000        0.026380         1
        12        13        14        15     9      180.000000        9.740390         2
        12        13        14        15     9        0.000000       -1.537542         3
        12        13        14        15     9      180.000000        0.038336         4
        12        13        18        17     9        0.000000        0.232595         1
        12        13        18        17     9      180.000000       14.006439         2
        12        13        18        17     9        0.000000       -0.477713         3
        12        13        18        17     9      180.000000       -0.321864         4
        12        13        18        39     9        0.000000        0.068439         1
        12        13        18        39     9      180.000000       10.607843         2
        12        13        18        39     9        0.000000       -0.059897         3
        12        13        18        39     9      180.000000        0.061277         4
        13        14        11        35     9        0.000000        0.060217         1
        13        14        11        35     9      180.000000        1.233275         2
        13        14        11        35     9        0.000000        0.211642         3
        13        14        11        35     9      180.000000        0.041954         4
        13        14        15        16     9        0.000000       -0.045533         1
        13        14        15        16     9      180.000000       17.207435         2
        13        14        15        16     9        0.000000       -1.559634         3
        13        14        15        16     9      180.000000       -0.300273         4
        13        14        15        37     9        0.000000        0.165080         1
        13        14        15        37     9      180.000000       11.983177         2
        13        14        15        37     9        0.000000       -0.139937         3
        13        14        15        37     9      180.000000       -0.000811         4
        13        18        17        16     9        0.000000       -0.037501         1
        13        18        17        16     9      180.000000       20.636420         2
        13        18        17        16     9        0.000000       -1.546996         3
        13        18        17        16     9      180.000000       -0.599422         4
        13        18        17        19     9        0.000000        0.265536         1
        13        18        17        19     9      180.000000       17.137058         2
        13        18        17        19     9        0.000000        0.100863         3
        13        18        17        19     9      180.000000       -0.498016         4
        14        13        12        36     9        0.000000        1.031704         1
        14        13        12        36     9      180.000000       11.253080         2
        14        13        12        36     9        0.000000        0.319281         3
        14        13        12        36     9      180.000000       -0.385662         4
        14        13        18        17     9        0.000000       -0.081543         1
        14        13        18        17     9      180.000000       19.370271         2
        14        13        18        17     9        0.000000       -1.673895         3
        14        13        18        17     9      180.000000       -0.550291         4
        14        13        18        39     9        0.000000        0.420282         1
        14        13        18        39     9      180.000000       13.608947         2
        14        13        18        39     9        0.000000       -0.137859         3
        14        13        18        39     9      180.000000       -0.185992         4
        14        15        16        17     9        0.000000       -0.102544         1
        14        15        16        17     9      180.000000       21.940856         2
        14        15        16        17     9        0.000000       -1.646905         3
        14        15        16        17     9      180.000000       -0.626166         4
        14        15        16        38     9        0.000000        0.047989         1
        14        15        16        38     9      180.000000       17.069876         2
        14        15        16        38     9        0.000000       -0.598388         3
        14        15        16        38     9      180.000000       -0.210061         4
        15        14        11        35     9        0.000000       -0.258692         1
        15        14        11        35     9      180.000000        0.808008         2
        15        14        11        35     9        0.000000        0.218709         3
        15        14        11        35     9      180.000000       -0.061191         4
        15        14        13        18     9        0.000000       -0.011740         1
        15        14        13        18     9      180.000000       10.681982         2
        15        14        13        18     9        0.000000       -1.107452         3
        15        14        13        18     9      180.000000       -0.059133         4
        15        16        17        18     9        0.000000        0.118539         1
        15        16        17        18     9      180.000000       18.060670         2
        15        16        17        18     9        0.000000       -1.477352         3
        15        16        17        18     9      180.000000       -0.395645         4
        15        16        17        19     9        0.000000        0.415498         1
        15        16        17        19     9      180.000000       13.920626         2
        15        16        17        19     9        0.000000       -0.017355         3
        15        16        17        19     9      180.000000       -0.065278         4
        16        17        18        39     9        0.000000        0.135532         1
        16        17        18        39     9      180.000000       14.395434         2
        16        17        18        39     9        0.000000       -0.566527         3
        16        17        18        39     9      180.000000       -0.066211         4
        16        17        19        20     9        0.000000        0.549497         1
        16        17        19        20     9      180.000000       -1.449968         2
        16        17        19        20     9        0.000000        0.395881         3
        16        17        19        20     9      180.000000        0.044452         4
        16        17        19        40     9        0.000000       -0.029204         1
        16        17        19        40     9      180.000000        0.223046         2
        16        17        19        40     9        0.000000        0.195529         3
        16        17        19        40     9      180.000000       -0.025331         4
        16        17        19        41     9        0.000000       -0.029204         1
        16        17        19        41     9      180.000000        0.223046         2
        16        17        19        41     9        0.000000        0.195529         3
        16        17        19        41     9      180.000000       -0.025331         4
        17        16        15        37     9        0.000000        0.034577         1
        17        16        15        37     9      180.000000       15.336710         2
        17        16        15        37     9        0.000000       -0.493478         3
        17        16        15        37     9      180.000000        0.031911         4
        17        19        20        21     9        0.000000       -0.125206         1
        17        19        20        21     9      180.000000        0.007019         2
        17        19        20        21     9        0.000000        1.047824         3
        17        19        20        21     9      180.000000        0.037227         4
        17        19        20        25     9        0.000000       -0.125206         1
        17        19        20        25     9      180.000000        0.007019         2
        17        19        20        25     9        0.000000        1.047824         3
        17        19        20        25     9      180.000000        0.037227         4
        17        19        20        42     9        0.000000        1.655145         1
        17        19        20        42     9      180.000000       -0.044734         2
        17        19        20        42     9        0.000000        0.617037         3
        17        19        20        42     9      180.000000       -0.103721         4
        18        13        12        36     9        0.000000       -0.483131         1
        18        13        12        36     9      180.000000        4.503046         2
        18        13        12        36     9        0.000000       -0.221609         3
        18        13        12        36     9      180.000000        0.120485         4
        18        17        16        38     9        0.000000        0.109962         1
        18        17        16        38     9      180.000000       13.524185         2
        18        17        16        38     9        0.000000       -0.741933         3
        18        17        16        38     9      180.000000        0.050029         4
        18        17        19        20     9        0.000000       -0.285649         1
        18        17        19        20     9      180.000000       -1.285466         2
        18        17        19        20     9        0.000000        0.178715         3
        18        17        19        20     9      180.000000        0.048292         4
        18        17        19        40     9        0.000000        0.013519         1
        18        17        19        40     9      180.000000        0.170025         2
        18        17        19        40     9        0.000000       -0.029491         3
        18        17        19        40     9      180.000000       -0.045372         4
        18        17        19        41     9        0.000000        0.013519         1
        18        17        19        41     9      180.000000        0.170025         2
        18        17        19        41     9        0.000000       -0.029491         3
        18        17        19        41     9      180.000000       -0.045372         4
        19        17        16        38     9        0.000000       -0.030370         1
        19        17        16        38     9      180.000000       11.438949         2
        19        17        16        38     9        0.000000       -0.465307         3
        19        17        16        38     9      180.000000        0.061061         4
        19        17        18        39     9        0.000000       -0.055057         1
        19        17        18        39     9      180.000000       11.875059         2
        19        17        18        39     9        0.000000       -0.483380         3
        19        17        18        39     9      180.000000        0.115101         4
        19        20        21        22     9        0.000000       -0.167424         1
        19        20        21        22     9      180.000000        0.211122         2
        19        20        21        22     9        0.000000        0.423421         3
        19        20        21        22     9      180.000000        0.080801         4
        19        20        21        43     9        0.000000       -0.030108         1
        19        20        21        43     9      180.000000       -0.018161         2
        19        20        21        43     9        0.000000        0.547066         3
        19        20        21        43     9      180.000000       -0.073417         4
        19        20        21        44     9        0.000000       -0.030108         1
        19        20        21        44     9      180.000000       -0.018161         2
        19        20        21        44     9        0.000000        0.547066         3
        19        20        21        44     9      180.000000       -0.073417         4
        19        20        25        24     9        0.000000       -0.167424         1
        19        20        25        24     9      180.000000        0.211122         2
        19        20        25        24     9        0.000000        0.423421         3
        19        20        25        24     9      180.000000        0.080801         4
        19        20        25        51     9        0.000000       -0.030108         1
        19        20        25        51     9      180.000000       -0.018161         2
        19        20        25        51     9        0.000000        0.547066         3
        19        20        25        51     9      180.000000       -0.073417         4
        19        20        25        52     9        0.000000       -0.030108         1
        19        20        25        52     9      180.000000       -0.018161         2
        19        20        25        52     9        0.000000        0.547066         3
        19        20        25        52     9      180.000000       -0.073417         4
        20        21        22        23     9        0.000000        2.361234         1
        20        21        22        23     9      180.000000       -0.810884         2
        20        21        22        23     9        0.000000        0.415656         3
        20        21        22        23     9      180.000000       -0.090053         4
        20        21        22        45     9        0.000000       -0.040539         1
        20        21        22        45     9      180.000000        0.002388         2
        20        21        22        45     9        0.000000        0.330899         3
        20        21        22        45     9      180.000000       -0.006998         4
        20        21        22        46     9        0.000000       -0.040539         1
        20        21        22        46     9      180.000000        0.002388         2
        20        21        22        46     9        0.000000        0.330899         3
        20        21        22        46     9      180.000000       -0.006998         4
        20        25        24        23     9        0.000000        2.361234         1
        20        25        24        23     9      180.000000       -0.810884         2
        20        25        24        23     9        0.000000        0.415656         3
        20        25        24        23     9      180.000000       -0.090053         4
        20        25        24        49     9        0.000000       -0.040539         1
        20        25        24        49     9      180.000000        0.002388         2
        20        25        24        49     9        0.000000        0.330899         3
        20        25        24        49     9      180.000000       -0.006998         4
        20        25        24        50     9        0.000000       -0.040539         1
        20        25        24        50     9      180.000000        0.002388         2
        20        25        24        50     9        0.000000        0.330899         3
        20        25        24        50     9      180.000000       -0.006998         4
        21        20        19        40     9        0.000000       -0.033109         1
        21        20        19        40     9      180.000000        0.052325         2
        21        20        19        40     9        0.000000        0.803370         3
        21        20        19        40     9      180.000000       -0.026172         4
        21        20        19        41     9        0.000000       -0.033109         1
        21        20        19        41     9      180.000000        0.052325         2
        21        20        19        41     9        0.000000        0.803370         3
        21        20        19        41     9      180.000000       -0.026172         4
        21        20        25        24     9        0.000000        1.197946         1
        21        20        25        24     9      180.000000       -0.864155         2
        21        20        25        24     9        0.000000        0.301044         3
        21        20        25        24     9      180.000000        0.013990         4
        21        20        25        51     9        0.000000       -0.044210         1
        21        20        25        51     9      180.000000        0.072815         2
        21        20        25        51     9        0.000000        0.445484         3
        21        20        25        51     9      180.000000       -0.054902         4
        21        20        25        52     9        0.000000       -0.044210         1
        21        20        25        52     9      180.000000        0.072815         2
        21        20        25        52     9        0.000000        0.445484         3
        21        20        25        52     9      180.000000       -0.054902         4
        21        22        23        24     9        0.000000        0.216913         1
        21        22        23        24     9      180.000000       -0.513401         2
        21        22        23        24     9        0.000000        0.316708         3
        21        22        23        24     9      180.000000        0.032021         4
        21        22        23        47     9        0.000000       -0.049008         1
        21        22        23        47     9      180.000000        0.015482         2
        21        22        23        47     9        0.000000        0.222308         3
        21        22        23        47     9      180.000000       -0.029978         4
        21        22        23        48     9        0.000000       -0.049008         1
        21        22        23        48     9      180.000000        0.015482         2
        21        22        23        48     9        0.000000        0.222308         3
        21        22        23        48     9      180.000000       -0.029978         4
        22        21        20        25     9        0.000000        1.197946         1
        22        21        20        25     9      180.000000       -0.864155         2
        22        21        20        25     9        0.000000        0.301044         3
        22        21        20        25     9      180.000000        0.013990         4
        22        21        20        42     9        0.000000       -0.053865         1
        22        21        20        42     9      180.000000       -0.195077         2
        22        21        20        42     9        0.000000        0.386828         3
        22        21        20        42     9      180.000000        0.036111         4
        22        23        24        25     9        0.000000        0.216913         1
        22        23        24        25     9      180.000000       -0.513401         2
        22        23        24        25     9        0.000000        0.316708         3
        22        23        24        25     9      180.000000        0.032021         4
        22        23        24        49     9        0.000000       -0.013356         1
        22        23        24        49     9      180.000000        0.018224         2
        22        23        24        49     9        0.000000        0.239851         3
        22        23        24        49     9      180.000000       -0.000475         4
        22        23        24        50     9        0.000000       -0.013356         1
        22        23        24        50     9      180.000000        0.018224         2
        22        23        24        50     9        0.000000        0.239851         3
        22        23        24        50     9      180.000000       -0.000475         4
        23        22        21        43     9        0.000000       -0.093091         1
        23        22        21        43     9      180.000000        0.020621         2
        23        22        21        43     9        0.000000        0.421685         3
        23        22        21        43     9      180.000000        0.044448         4
        23        22        21        44     9        0.000000       -0.093091         1
        23        22        21        44     9      180.000000        0.020621         2
        23        22        21        44     9        0.000000        0.421685         3
        23        22        21        44     9      180.000000        0.044448         4
        23        24        25        51     9        0.000000       -0.093091         1
        23        24        25        51     9      180.000000        0.020621         2
        23        24        25        51     9        0.000000        0.421685         3
        23        24        25        51     9      180.000000        0.044448         4
        23        24        25        52     9        0.000000       -0.093091         1
        23        24        25        52     9      180.000000        0.020621         2
        23        24        25        52     9        0.000000        0.421685         3
        23        24        25        52     9      180.000000        0.044448         4
        24        23        22        45     9        0.000000       -0.013356         1
        24        23        22        45     9      180.000000        0.018224         2
        24        23        22        45     9        0.000000        0.239851         3
        24        23        22        45     9      180.000000       -0.000475         4
        24        23        22        46     9        0.000000       -0.013356         1
        24        23        22        46     9      180.000000        0.018224         2
        24        23        22        46     9        0.000000        0.239851         3
        24        23        22        46     9      180.000000       -0.000475         4
        24        25        20        42     9        0.000000       -0.053865         1
        24        25        20        42     9      180.000000       -0.195077         2
        24        25        20        42     9        0.000000        0.386828         3
        24        25        20        42     9      180.000000        0.036111         4
        25        20        19        40     9        0.000000       -0.033109         1
        25        20        19        40     9      180.000000        0.052325         2
        25        20        19        40     9        0.000000        0.803370         3
        25        20        19        40     9      180.000000       -0.026172         4
        25        20        19        41     9        0.000000       -0.033109         1
        25        20        19        41     9      180.000000        0.052325         2
        25        20        19        41     9        0.000000        0.803370         3
        25        20        19        41     9      180.000000       -0.026172         4
        25        20        21        43     9        0.000000       -0.044210         1
        25        20        21        43     9      180.000000        0.072815         2
        25        20        21        43     9        0.000000        0.445484         3
        25        20        21        43     9      180.000000       -0.054902         4
        25        20        21        44     9        0.000000       -0.044210         1
        25        20        21        44     9      180.000000        0.072815         2
        25        20        21        44     9        0.000000        0.445484         3
        25        20        21        44     9      180.000000       -0.054902         4
        25        24        23        47     9        0.000000       -0.049008         1
        25        24        23        47     9      180.000000        0.015482         2
        25        24        23        47     9        0.000000        0.222308         3
        25        24        23        47     9      180.000000       -0.029978         4
        25        24        23        48     9        0.000000       -0.049008         1
        25        24        23        48     9      180.000000        0.015482         2
        25        24        23        48     9        0.000000        0.222308         3
        25        24        23        48     9      180.000000       -0.029978         4
        26         2         1        31     9        0.000000        0.022778         1
        26         2         1        31     9      180.000000       13.124855         2
        26         2         1        31     9        0.000000       -0.093476         3
        26         2         1        31     9      180.000000        0.163478         4
        26         2         3        32     9        0.000000        0.082770         1
        26         2         3        32     9      180.000000       14.189227         2
        26         2         3        32     9        0.000000        0.021696         3
        26         2         3        32     9      180.000000        0.174936         4
        26        27        28        29     9        0.000000       -0.210308         1
        26        27        28        29     9      180.000000       33.923424         2
        26        27        28        29     9        0.000000       -8.133048         3
        26        27        28        29     9      180.000000       -0.086225         4
        26        27        28        54     9        0.000000        0.184696         1
        26        27        28        54     9      180.000000       16.662439         2
        26        27        28        54     9        0.000000       -1.190474         3
        26        27        28        54     9      180.000000       -0.202986         4
        26        30        29        28     9        0.000000       -0.172058         1
        26        30        29        28     9      180.000000       46.960298         2
        26        30        29        28     9        0.000000       -4.927718         3
        26        30        29        28     9      180.000000        0.292487         4
        27        26        30        29     9        0.000000       -0.067870         1
        27        26        30        29     9      180.000000       32.415759         2
        27        26        30        29     9        0.000000       -5.670059         3
        27        26        30        29     9      180.000000       -0.084592         4
        27        28        29        30     9        0.000000       -0.390922         1
        27        28        29        30     9      180.000000       36.692796         2
        27        28        29        30     9        0.000000       -6.895787         3
        27        28        29        30     9      180.000000       -0.047083         4
        28        27        26        30     9        0.000000        0.236742         1
        28        27        26        30     9      180.000000       29.266549         2
        28        27        26        30     9        0.000000       -7.832647         3
        28        27        26        30     9      180.000000       -0.227211         4
        29        28        27        53     9        0.000000        0.299049         1
        29        28        27        53     9      180.000000       16.412665         2
        29        28        27        53     9        0.000000       -0.485810         3
        29        28        27        53     9      180.000000       -0.454657         4
        30        26        27        53     9        0.000000        0.685845         1
        30        26        27        53     9      180.000000        9.605409         2
        30        26        27        53     9        0.000000        0.137439         3
        30        26        27        53     9      180.000000       -0.164575         4
        30        29        28        54     9        0.000000        0.706306         1
        30        29        28        54     9      180.000000       22.635603         2
        30        29        28        54     9        0.000000       -0.109544         3
        30        29        28        54     9      180.000000       -0.148711         4
        31         1         4        33     9        0.000000       -0.132143         1
        31         1         4        33     9      180.000000       12.946693         2
        31         1         4        33     9        0.000000       -0.744666         3
        31         1         4        33     9      180.000000        0.305818         4
        37        15        16        38     9        0.000000       -0.008913         1
        37        15        16        38     9      180.000000       12.566191         2
        37        15        16        38     9        0.000000       -0.661925         3
        37        15        16        38     9      180.000000        0.252906         4
        40        19        20        42     9        0.000000        0.012892         1
        40        19        20        42     9      180.000000        0.090469         2
        40        19        20        42     9        0.000000        0.602986         3
        40        19        20        42     9      180.000000       -0.069346         4
        41        19        20        42     9        0.000000        0.012892         1
        41        19        20        42     9      180.000000        0.090469         2
        41        19        20        42     9        0.000000        0.602986         3
        41        19        20        42     9      180.000000       -0.069346         4
        42        20        21        43     9        0.000000       -0.121455         1
        42        20        21        43     9      180.000000        0.136419         2
        42        20        21        43     9        0.000000        0.464455         3
        42        20        21        43     9      180.000000       -0.007453         4
        42        20        21        44     9        0.000000       -0.121455         1
        42        20        21        44     9      180.000000        0.136419         2
        42        20        21        44     9        0.000000        0.464455         3
        42        20        21        44     9      180.000000       -0.007453         4
        42        20        25        51     9        0.000000       -0.121455         1
        42        20        25        51     9      180.000000        0.136419         2
        42        20        25        51     9        0.000000        0.464455         3
        42        20        25        51     9      180.000000       -0.007453         4
        42        20        25        52     9        0.000000       -0.121455         1
        42        20        25        52     9      180.000000        0.136419         2
        42        20        25        52     9        0.000000        0.464455         3
        42        20        25        52     9      180.000000       -0.007453         4
        43        21        22        45     9        0.000000       -0.022405         1
        43        21        22        45     9      180.000000        0.027642         2
        43        21        22        45     9        0.000000        0.442579         3
        43        21        22        45     9      180.000000        0.000549         4
        43        21        22        46     9        0.000000       -0.022405         1
        43        21        22        46     9      180.000000        0.027642         2
        43        21        22        46     9        0.000000        0.442579         3
        43        21        22        46     9      180.000000        0.000549         4
        44        21        22        45     9        0.000000       -0.022405         1
        44        21        22        45     9      180.000000        0.027642         2
        44        21        22        45     9        0.000000        0.442579         3
        44        21        22        45     9      180.000000        0.000549         4
        44        21        22        46     9        0.000000       -0.022405         1
        44        21        22        46     9      180.000000        0.027642         2
        44        21        22        46     9        0.000000        0.442579         3
        44        21        22        46     9      180.000000        0.000549         4
        45        22        23        47     9        0.000000        0.007156         1
        45        22        23        47     9      180.000000       -0.013978         2
        45        22        23        47     9        0.000000        0.286858         3
        45        22        23        47     9      180.000000        0.008639         4
        45        22        23        48     9        0.000000        0.007156         1
        45        22        23        48     9      180.000000       -0.013978         2
        45        22        23        48     9        0.000000        0.286858         3
        45        22        23        48     9      180.000000        0.008639         4
        46        22        23        47     9        0.000000        0.007156         1
        46        22        23        47     9      180.000000       -0.013978         2
        46        22        23        47     9        0.000000        0.286858         3
        46        22        23        47     9      180.000000        0.008639         4
        46        22        23        48     9        0.000000        0.007156         1
        46        22        23        48     9      180.000000       -0.013978         2
        46        22        23        48     9        0.000000        0.286858         3
        46        22        23        48     9      180.000000        0.008639         4
        47        23        24        49     9        0.000000        0.007156         1
        47        23        24        49     9      180.000000       -0.013978         2
        47        23        24        49     9        0.000000        0.286858         3
        47        23        24        49     9      180.000000        0.008639         4
        47        23        24        50     9        0.000000        0.007156         1
        47        23        24        50     9      180.000000       -0.013978         2
        47        23        24        50     9        0.000000        0.286858         3
        47        23        24        50     9      180.000000        0.008639         4
        48        23        24        49     9        0.000000        0.007156         1
        48        23        24        49     9      180.000000       -0.013978         2
        48        23        24        49     9        0.000000        0.286858         3
        48        23        24        49     9      180.000000        0.008639         4
        48        23        24        50     9        0.000000        0.007156         1
        48        23        24        50     9      180.000000       -0.013978         2
        48        23        24        50     9        0.000000        0.286858         3
        48        23        24        50     9      180.000000        0.008639         4
        49        24        25        51     9        0.000000       -0.022405         1
        49        24        25        51     9      180.000000        0.027642         2
        49        24        25        51     9        0.000000        0.442579         3
        49        24        25        51     9      180.000000        0.000549         4
        49        24        25        52     9        0.000000       -0.022405         1
        49        24        25        52     9      180.000000        0.027642         2
        49        24        25        52     9        0.000000        0.442579         3
        49        24        25        52     9      180.000000        0.000549         4
        50        24        25        51     9        0.000000       -0.022405         1
        50        24        25        51     9      180.000000        0.027642         2
        50        24        25        51     9        0.000000        0.442579         3
        50        24        25        51     9      180.000000        0.000549         4
        50        24        25        52     9        0.000000       -0.022405         1
        50        24        25        52     9      180.000000        0.027642         2
        50        24        25        52     9        0.000000        0.442579         3
        50        24        25        52     9      180.000000        0.000549         4
        53        27        28        54     9        0.000000       -0.705317         1
        53        27        28        54     9      180.000000        8.814610         2
        53        27        28        54     9        0.000000       -0.419587         3
        53        27        28        54     9      180.000000        0.209445         4

[ pairs ]
;       ai        aj funct
         1         6     1
         1         9     1
         1        27     1
         1        30     1
         1        32     1
         2         5     1
         2         7     1
         2        28     1
         2        29     1
         2        33     1
         2        53     1
         3         4     1
         3         8     1
         3         9     1
         3        27     1
         3        30     1
         3        31     1
         3        34     1
         4         7     1
         4         8     1
         4        10     1
         4        26     1
         5        11     1
         5        12     1
         5        31     1
         5        32     1
         5        34     1
         6        10     1
         6        26     1
         6        33     1
         7        10     1
         7        32     1
         8        11     1
         8        12     1
         9        13     1
         9        14     1
         9        33     1
         9        34     1
         9        35     1
         9        36     1
        10        15     1
        10        18     1
        11        16     1
        11        18     1
        11        36     1
        11        37     1
        12        15     1
        12        17     1
        12        35     1
        12        39     1
        13        16     1
        13        19     1
        13        35     1
        13        37     1
        14        17     1
        14        36     1
        14        38     1
        14        39     1
        15        18     1
        15        19     1
        15        35     1
        16        20     1
        16        39     1
        16        40     1
        16        41     1
        17        21     1
        17        25     1
        17        37     1
        17        42     1
        18        20     1
        18        36     1
        18        38     1
        18        40     1
        18        41     1
        19        22     1
        19        24     1
        19        38     1
        19        39     1
        19        43     1
        19        44     1
        19        51     1
        19        52     1
        20        23     1
        20        45     1
        20        46     1
        20        49     1
        20        50     1
        21        24     1
        21        40     1
        21        41     1
        21        47     1
        21        48     1
        21        51     1
        21        52     1
        22        25     1
        22        42     1
        22        49     1
        22        50     1
        23        43     1
        23        44     1
        23        51     1
        23        52     1
        24        42     1
        24        45     1
        24        46     1
        25        40     1
        25        41     1
        25        43     1
        25        44     1
        25        47     1
        25        48     1
        26        31     1
        26        32     1
        26        54     1
        29        53     1
        30        53     1
        30        54     1
        31        33     1
        37        38     1
        40        42     1
        41        42     1
        42        43     1
        42        44     1
        42        51     1
        42        52     1
        43        45     1
        43        46     1
        44        45     1
        44        46     1
        45        47     1
        45        48     1
        46        47     1
        46        48     1
        47        49     1
        47        50     1
        48        49     1
        48        50     1
        49        51     1
        49        52     1
        50        51     1
        50        52     1
        53        54     1
