; ITP file created by ByteFF-ML, 2025-12-06 08:14:23.241477

[ atomtypes ]
;name           bonded.type        at.num        mass        charge   ptype           sigma         epsilon
 c0bf                                   6      0.0000       0.00000       A     3.31543e-01     4.13620e-01
 c1bf                                   6      0.0000       0.00000       A     3.31386e-01     4.11647e-01
 c2bf                                   6      0.0000       0.00000       A     3.31364e-01     4.12413e-01
 c3bf                                   6      0.0000       0.00000       A     3.31549e-01     4.12798e-01
 c4bf                                   6      0.0000       0.00000       A     3.31520e-01     4.12078e-01
 c5bf                                   6      0.0000       0.00000       A     3.31556e-01     4.12506e-01
 n6bf                                   7      0.0000       0.00000       A     3.20394e-01     8.53750e-01
 n7bf                                   7      0.0000       0.00000       A     3.38370e-01     3.92979e-01
 c8bf                                   6      0.0000       0.00000       A     3.31620e-01     4.14723e-01
 c9bf                                   6      0.0000       0.00000       A     3.31059e-01     4.13664e-01
 n10bf                                  7      0.0000       0.00000       A     3.20376e-01     8.55899e-01
 c11bf                                  6      0.0000       0.00000       A     3.31306e-01     4.11917e-01
 c12bf                                  6      0.0000       0.00000       A     3.31510e-01     4.13055e-01
 c13bf                                  6      0.0000       0.00000       A     3.31590e-01     4.12179e-01
 c14bf                                  6      0.0000       0.00000       A     3.31457e-01     4.13497e-01
 c15bf                                  6      0.0000       0.00000       A     3.31456e-01     4.14408e-01
 c16bf                                  6      0.0000       0.00000       A     3.31385e-01     4.12455e-01
 c17bf                                  6      0.0000       0.00000       A     3.31403e-01     4.13537e-01
 c18bf                                  6      0.0000       0.00000       A     3.39680e-01     4.51466e-01
 n19bf                                  7      0.0000       0.00000       A     2.58565e-01     1.06457e+01
 c20bf                                  6      0.0000       0.00000       A     3.39803e-01     4.50476e-01
 c21bf                                  6      0.0000       0.00000       A     3.39660e-01     4.50650e-01
 c22bf                                  6      0.0000       0.00000       A     3.40007e-01     4.50856e-01
 c23bf                                  6      0.0000       0.00000       A     3.39660e-01     4.50650e-01
 c24bf                                  6      0.0000       0.00000       A     3.39803e-01     4.50476e-01
 c25bf                                  6      0.0000       0.00000       A     3.31365e-01     4.13312e-01
 h26bf                                  1      0.0000       0.00000       A     2.60071e-01     8.65532e-02
 c27bf                                  6      0.0000       0.00000       A     3.31503e-01     4.12397e-01
 c28bf                                  6      0.0000       0.00000       A     3.31484e-01     4.13026e-01
 c29bf                                  6      0.0000       0.00000       A     3.31494e-01     4.13000e-01
 c30bf                                  6      0.0000       0.00000       A     3.31484e-01     4.13026e-01
 c31bf                                  6      0.0000       0.00000       A     3.31503e-01     4.12397e-01
 h32bf                                  1      0.0000       0.00000       A     2.62536e-01     6.73781e-02
 h33bf                                  1      0.0000       0.00000       A     2.62530e-01     6.74962e-02
 h34bf                                  1      0.0000       0.00000       A     2.62574e-01     6.68482e-02
 h35bf                                  1      0.0000       0.00000       A     1.10662e-01     4.14451e-02
 h36bf                                  1      0.0000       0.00000       A     1.10899e-01     4.15233e-02
 h37bf                                  1      0.0000       0.00000       A     2.62647e-01     6.66471e-02
 h38bf                                  1      0.0000       0.00000       A     2.62485e-01     6.72408e-02
 h39bf                                  1      0.0000       0.00000       A     2.62648e-01     6.74100e-02
 h40bf                                  1      0.0000       0.00000       A     2.62452e-01     6.78776e-02
 h41bf                                  1      0.0000       0.00000       A     1.87833e-01     8.63729e-02
 h42bf                                  1      0.0000       0.00000       A     1.87833e-01     8.63729e-02
 h43bf                                  1      0.0000       0.00000       A     1.10702e-01     4.18154e-02
 h44bf                                  1      0.0000       0.00000       A     1.88382e-01     8.65995e-02
 h45bf                                  1      0.0000       0.00000       A     1.88382e-01     8.65995e-02
 h46bf                                  1      0.0000       0.00000       A     2.59967e-01     8.84542e-02
 h47bf                                  1      0.0000       0.00000       A     2.59967e-01     8.84542e-02
 h48bf                                  1      0.0000       0.00000       A     2.60071e-01     8.65532e-02
 h49bf                                  1      0.0000       0.00000       A     2.59967e-01     8.84542e-02
 h50bf                                  1      0.0000       0.00000       A     2.59967e-01     8.84542e-02
 h51bf                                  1      0.0000       0.00000       A     1.88382e-01     8.65995e-02
 h52bf                                  1      0.0000       0.00000       A     1.88382e-01     8.65995e-02
 h53bf                                  1      0.0000       0.00000       A     2.62472e-01     6.74738e-02
 h54bf                                  1      0.0000       0.00000       A     2.62467e-01     6.73573e-02
 h55bf                                  1      0.0000       0.00000       A     2.62457e-01     6.73477e-02
 h56bf                                  1      0.0000       0.00000       A     2.62467e-01     6.73573e-02
 h57bf                                  1      0.0000       0.00000       A     2.62472e-01     6.74738e-02

[ moleculetype ]
;name             nrexcl
 20                    3

[ atoms ]
;       nr            type      resi   res      atom      cgnr      charge          mass ; qtot
         1            c0bf         1   UNL        c0         1    -0.13580       12.0110 ; qtot   -0.136
         2            c1bf         1   UNL        c1         2     0.00155       12.0110 ; qtot   -0.134
         3            c2bf         1   UNL        c2         3    -0.12925       12.0110 ; qtot   -0.264
         4            c3bf         1   UNL        c3         4    -0.03128       12.0110 ; qtot   -0.295
         5            c4bf         1   UNL        c4         5    -0.21104       12.0110 ; qtot   -0.506
         6            c5bf         1   UNL        c5         6    -0.01764       12.0110 ; qtot   -0.523
         7            n6bf         1   UNL        n6         7    -0.06951       14.0070 ; qtot   -0.593
         8            n7bf         1   UNL        n7         8    -0.50877       14.0070 ; qtot   -1.102
         9            c8bf         1   UNL        c8         9     0.42086       12.0110 ; qtot   -0.681
        10            c9bf         1   UNL        c9        10    -0.09417       12.0110 ; qtot   -0.775
        11           n10bf         1   UNL       n10        11    -0.22773       14.0070 ; qtot   -1.003
        12           c11bf         1   UNL       c11        12    -0.19556       12.0110 ; qtot   -1.198
        13           c12bf         1   UNL       c12        13    -0.10699       12.0110 ; qtot   -1.305
        14           c13bf         1   UNL       c13        14    -0.00399       12.0110 ; qtot   -1.309
        15           c14bf         1   UNL       c14        15    -0.10608       12.0110 ; qtot   -1.415
        16           c15bf         1   UNL       c15        16    -0.06975       12.0110 ; qtot   -1.485
        17           c16bf         1   UNL       c16        17    -0.21681       12.0110 ; qtot   -1.702
        18           c17bf         1   UNL       c17        18     0.00617       12.0110 ; qtot   -1.696
        19           c18bf         1   UNL       c18        19     0.19074       12.0110 ; qtot   -1.505
        20           n19bf         1   UNL       n19        20    -0.68619       14.0070 ; qtot   -2.191
        21           c20bf         1   UNL       c20        21     0.11169       12.0110 ; qtot   -2.080
        22           c21bf         1   UNL       c21        22    -0.10586       12.0110 ; qtot   -2.185
        23           c22bf         1   UNL       c22        23    -0.08859       12.0110 ; qtot   -2.274
        24           c23bf         1   UNL       c23        24    -0.10586       12.0110 ; qtot   -2.380
        25           c24bf         1   UNL       c24        25     0.11169       12.0110 ; qtot   -2.268
        26           c25bf         1   UNL       c25        26    -0.03998       12.0110 ; qtot   -2.308
        27           h26bf         1   UNL       h26        27     0.07775        1.0080 ; qtot   -2.230
        28           c27bf         1   UNL       c27        28    -0.10380       12.0110 ; qtot   -2.334
        29           c28bf         1   UNL       c28        29    -0.11412       12.0110 ; qtot   -2.448
        30           c29bf         1   UNL       c29        30    -0.10311       12.0110 ; qtot   -2.551
        31           c30bf         1   UNL       c30        31    -0.11412       12.0110 ; qtot   -2.666
        32           c31bf         1   UNL       c31        32    -0.10380       12.0110 ; qtot   -2.769
        33           h32bf         1   UNL       h32        33     0.11776        1.0080 ; qtot   -2.652
        34           h33bf         1   UNL       h33        34     0.12720        1.0080 ; qtot   -2.524
        35           h34bf         1   UNL       h34        35     0.12758        1.0080 ; qtot   -2.397
        36           h35bf         1   UNL       h35        36     0.37925        1.0080 ; qtot   -2.018
        37           h36bf         1   UNL       h36        37     0.35537        1.0080 ; qtot   -1.662
        38           h37bf         1   UNL       h37        38     0.20407        1.0080 ; qtot   -1.458
        39           h38bf         1   UNL       h38        39     0.13079        1.0080 ; qtot   -1.327
        40           h39bf         1   UNL       h39        40     0.12413        1.0080 ; qtot   -1.203
        41           h40bf         1   UNL       h40        41     0.12618        1.0080 ; qtot   -1.077
        42           h41bf         1   UNL       h41        42     0.09866        1.0080 ; qtot   -0.978
        43           h42bf         1   UNL       h42        43     0.09866        1.0080 ; qtot   -0.880
        44           h43bf         1   UNL       h43        44     0.50046        1.0080 ; qtot   -0.379
        45           h44bf         1   UNL       h44        45     0.09543        1.0080 ; qtot   -0.284
        46           h45bf         1   UNL       h45        46     0.09543        1.0080 ; qtot   -0.188
        47           h46bf         1   UNL       h46        47     0.08552        1.0080 ; qtot   -0.103
        48           h47bf         1   UNL       h47        48     0.08552        1.0080 ; qtot   -0.017
        49           h48bf         1   UNL       h48        49     0.07775        1.0080 ; qtot    0.060
        50           h49bf         1   UNL       h49        50     0.08552        1.0080 ; qtot    0.146
        51           h50bf         1   UNL       h50        51     0.08552        1.0080 ; qtot    0.231
        52           h51bf         1   UNL       h51        52     0.09543        1.0080 ; qtot    0.327
        53           h52bf         1   UNL       h52        53     0.09543        1.0080 ; qtot    0.422
        54           h53bf         1   UNL       h53        54     0.11546        1.0080 ; qtot    0.538
        55           h54bf         1   UNL       h54        55     0.11544        1.0080 ; qtot    0.653
        56           h55bf         1   UNL       h55        56     0.11588        1.0080 ; qtot    0.769
        57           h56bf         1   UNL       h56        57     0.11544        1.0080 ; qtot    0.885
        58           h57bf         1   UNL       h57        58     0.11547        1.0080 ; qtot    1.000

[ bonds ]
;       ai        aj funct               r               k
         1         2     1        0.142503   250227.996533
         1         4     1        0.138729   338684.559619
         1        33     1        0.108529   319401.079736
         2         3     1        0.139537   307097.683496
         2        26     1        0.148372   212306.844727
         3         6     1        0.140239   303438.215723
         3        34     1        0.108536   320161.268408
         4         5     1        0.141007   297430.917188
         4        35     1        0.108481   322498.858789
         5         6     1        0.141886   249168.666162
         5         9     1        0.144264   224052.280664
         6         7     1        0.137194   283105.850146
         7         8     1        0.135680   254754.934375
         7        36     1        0.100954   434031.928613
         8         9     1        0.133497   344504.952051
         9        10     1        0.145193   253459.998633
        10        11     1        0.139180   262347.346826
        10        12     1        0.138454   347289.441846
        11        14     1        0.138201   275860.155029
        11        37     1        0.101035   429177.375195
        12        13     1        0.143536   250057.076660
        12        38     1        0.108050   337425.503516
        13        14     1        0.142955   237535.976562
        13        18     1        0.140443   303438.496631
        14        15     1        0.140156   305366.522852
        15        16     1        0.138900   337804.831738
        15        39     1        0.108539   321997.667480
        16        17     1        0.141819   266033.143359
        16        40     1        0.108652   318090.208838
        17        18     1        0.139677   302830.509131
        17        19     1        0.149908   204446.254321
        18        41     1        0.108666   317086.345068
        19        20     1        0.153197   111198.010181
        19        42     1        0.109096   309012.379346
        19        43     1        0.109096   309012.379346
        20        21     1        0.152145   128071.897803
        20        25     1        0.152145   128071.897803
        20        44     1        0.102494   385069.041455
        21        22     1        0.152748   189250.486768
        21        45     1        0.109106   309880.411230
        21        46     1        0.109106   309880.411230
        22        23     1        0.153779   184046.126025
        22        47     1        0.109388   302488.362939
        22        48     1        0.109388   302488.362939
        23        24     1        0.153779   184046.126025
        23        27     1        0.109386   302361.341357
        23        49     1        0.109386   302361.341357
        24        25     1        0.152748   189250.486768
        24        50     1        0.109388   302488.362939
        24        51     1        0.109388   302488.362939
        25        52     1        0.109106   309880.436768
        25        53     1        0.109106   309880.436768
        26        28     1        0.140683   282907.733252
        26        32     1        0.140683   282907.733252
        28        29     1        0.139702   316252.149854
        28        54     1        0.108604   318073.201123
        29        30     1        0.139950   305544.516504
        29        55     1        0.108644   319100.252588
        30        31     1        0.139950   305544.516504
        30        56     1        0.108618   320581.583691
        31        32     1        0.139702   316252.175391
        31        57     1        0.108644   319100.278125
        32        58     1        0.108604   318073.201123

[ angles ]
;       ai        aj        ak funct           theta             cth
         1         2         3     1      119.559189      583.965635
         1         2        26     1      120.020676      587.702416
         1         4         5     1      118.787987      674.053023
         1         4        35     1      120.447899      424.721871
         2         1         4     1      122.092384      654.251293
         2         1        33     1      118.738548      442.515969
         2         3         6     1      117.896767      757.497827
         2         3        34     1      120.900551      418.893728
         2        26        28     1      120.905655      506.603963
         2        26        32     1      120.905655      506.603963
         3         2        26     1      120.350098      436.844113
         3         6         5     1      122.763168      643.819001
         3         6         7     1      131.520386      457.264512
         4         1        33     1      119.189880      434.397371
         4         5         6     1      118.722473      699.115334
         4         5         9     1      136.465958      474.635173
         5         4        35     1      121.035812      437.027598
         5         6         7     1      105.795776      167.360000
         5         9         8     1      110.625534      350.431770
         5         9        10     1      129.212082      400.438953
         6         3        34     1      121.289230      438.498727
         6         5         9     1      104.619324      428.299045
         6         7         8     1      112.708420      423.428065
         6         7        36     1      128.477142      379.886783
         7         8         9     1      106.524658      586.931643
         8         7        36     1      118.717484      478.648776
         8         9        10     1      120.099777      559.250884
         9        10        11     1      120.414673      507.245551
         9        10        12     1      131.034760      447.502696
        10        11        14     1      109.440186      409.573864
        10        11        37     1      123.215820      379.022543
        10        12        13     1      107.464355      383.437239
        10        12        38     1      125.246742      393.800518
        11        10        12     1      108.673904      167.360000
        11        14        13     1      107.344810      298.221055
        11        14        15     1      130.709946      469.443893
        12        13        14     1      106.916115      360.114421
        12        13        18     1      134.237762      411.179095
        13        12        38     1      127.224655      385.462587
        13        14        15     1      122.047226      612.367944
        13        18        17     1      119.376549      655.622253
        13        18        41     1      119.879227      440.646397
        14        11        37     1      125.853867      394.838697
        14        13        18     1      118.799820      745.865546
        14        15        16     1      117.639648      794.148814
        14        15        39     1      121.576096      439.900650
        15        16        17     1      121.524864      583.498880
        15        16        40     1      118.960594      421.153092
        16        15        39     1      120.828659      425.915061
        16        17        18     1      120.372581      616.559733
        16        17        19     1      119.635887      531.878742
        17        16        40     1      119.626991      401.380985
        17        18        41     1      120.674217      396.460974
        17        19        20     1      111.410690      569.172498
        17        19        42     1      112.377319      462.887783
        17        19        43     1      112.377319      462.887783
        18        17        19     1      120.018288      462.537478
        19        20        21     1      112.704857      588.015118
        19        20        25     1      112.704857      588.015118
        19        20        44     1      105.970398      490.093296
        20        19        42     1      105.727821      544.833079
        20        19        43     1      105.727821      544.833079
        20        21        22     1      110.669518      713.348889
        20        21        45     1      106.583885      517.691410
        20        21        46     1      106.583885      517.691410
        20        25        24     1      110.669518      713.348889
        20        25        52     1      106.583885      517.691410
        20        25        53     1      106.583885      517.691410
        21        20        25     1      111.317604      604.395259
        21        20        44     1      106.781754      499.371087
        21        22        23     1      111.364792      654.236737
        21        22        47     1      108.713943      507.855632
        21        22        48     1      108.713943      507.855632
        22        21        45     1      112.117599      482.200988
        22        21        46     1      112.117599      482.200988
        22        23        24     1      110.735153      610.700243
        22        23        27     1      109.863098      503.206027
        22        23        49     1      109.863098      503.206027
        23        22        47     1      110.716568      488.430479
        23        22        48     1      110.716568      488.430479
        23        24        25     1      111.364792      654.236737
        23        24        50     1      110.716568      488.430479
        23        24        51     1      110.716568      488.430479
        24        23        27     1      109.863098      503.206027
        24        23        49     1      109.863098      503.206027
        24        25        52     1      112.117599      482.200988
        24        25        53     1      112.117599      482.200988
        25        20        44     1      106.781754      499.371087
        25        24        50     1      108.713943      507.855632
        25        24        51     1      108.713943      507.855632
        26        28        29     1      120.938004      701.799157
        26        28        54     1      119.558449      426.422674
        26        32        31     1      120.938004      701.799157
        26        32        58     1      119.558449      426.422706
        27        23        49     1      106.540726      364.941701
        28        26        32     1      118.164322      601.789771
        28        29        30     1      120.247276      705.847044
        28        29        55     1      119.676468      437.175713
        29        28        54     1      119.555710      435.988684
        29        30        31     1      119.502403      668.838473
        29        30        56     1      120.262772      428.502417
        30        29        55     1      120.096329      440.275152
        30        31        32     1      120.247276      705.847044
        30        31        57     1      120.096329      440.275152
        31        30        56     1      120.262772      428.502385
        31        32        58     1      119.555710      435.988684
        32        31        57     1      119.676468      437.175713
        42        19        43     1      108.533302      349.262713
        45        21        46     1      108.492310      346.342034
        47        22        48     1      106.356018      362.065967
        50        24        51     1      106.356018      362.065967
        52        25        53     1      108.492310      346.342034

[ dihedrals ] ; propers for gromacs 4.5 or higher, use funct 9
;       ai        aj        ak        al funct           phase               k        pn
         1         2         3         6     9        0.000000       -0.243689         1
         1         2         3         6     9      180.000000       21.279888         2
         1         2         3         6     9        0.000000       -1.763105         3
         1         2         3         6     9      180.000000       -0.508053         4
         1         2         3        34     9        0.000000        0.042995         1
         1         2         3        34     9      180.000000       14.689964         2
         1         2         3        34     9        0.000000       -0.497278         3
         1         2         3        34     9      180.000000        0.035181         4
         1         2        26        28     9        0.000000        0.011490         1
         1         2        26        28     9      180.000000        3.547458         2
         1         2        26        28     9        0.000000       -0.054390         3
         1         2        26        28     9      180.000000        0.040489         4
         1         2        26        32     9        0.000000        0.011489         1
         1         2        26        32     9      180.000000        3.547458         2
         1         2        26        32     9        0.000000       -0.054390         3
         1         2        26        32     9      180.000000        0.040489         4
         1         4         5         6     9        0.000000        0.067007         1
         1         4         5         6     9      180.000000       20.112521         2
         1         4         5         6     9        0.000000       -2.440256         3
         1         4         5         6     9      180.000000       -0.471928         4
         1         4         5         9     9        0.000000       -0.048957         1
         1         4         5         9     9      180.000000       12.257757         2
         1         4         5         9     9        0.000000       -0.405926         3
         1         4         5         9     9      180.000000        0.017736         4
         2         1         4         5     9        0.000000        0.030517         1
         2         1         4         5     9      180.000000       20.700010         2
         2         1         4         5     9        0.000000       -1.656805         3
         2         1         4         5     9      180.000000       -0.367417         4
         2         1         4        35     9        0.000000       -0.051551         1
         2         1         4        35     9      180.000000       15.271660         2
         2         1         4        35     9        0.000000       -0.477325         3
         2         1         4        35     9      180.000000        0.141461         4
         2         3         6         5     9        0.000000       -0.174407         1
         2         3         6         5     9      180.000000       16.598591         2
         2         3         6         5     9        0.000000       -1.616790         3
         2         3         6         5     9      180.000000       -0.354160         4
         2         3         6         7     9        0.000000        0.278490         1
         2         3         6         7     9      180.000000       14.264085         2
         2         3         6         7     9        0.000000       -0.169591         3
         2         3         6         7     9      180.000000       -0.250131         4
         2        26        28        29     9        0.000000        0.237359         1
         2        26        28        29     9      180.000000       16.248856         2
         2        26        28        29     9        0.000000       -0.143120         3
         2        26        28        29     9      180.000000       -0.222041         4
         2        26        28        54     9        0.000000       -0.120088         1
         2        26        28        54     9      180.000000       13.293268         2
         2        26        28        54     9        0.000000       -0.167390         3
         2        26        28        54     9      180.000000        0.198495         4
         2        26        32        31     9        0.000000        0.237359         1
         2        26        32        31     9      180.000000       16.248856         2
         2        26        32        31     9        0.000000       -0.143121         3
         2        26        32        31     9      180.000000       -0.222041         4
         2        26        32        58     9        0.000000       -0.120089         1
         2        26        32        58     9      180.000000       13.293268         2
         2        26        32        58     9        0.000000       -0.167389         3
         2        26        32        58     9      180.000000        0.198495         4
         3         2         1         4     9        0.000000       -0.202660         1
         3         2         1         4     9      180.000000       16.427156         2
         3         2         1         4     9        0.000000       -1.202887         3
         3         2         1         4     9      180.000000       -0.311762         4
         3         2         1        33     9        0.000000       -0.070036         1
         3         2         1        33     9      180.000000       12.882258         2
         3         2         1        33     9        0.000000       -0.607940         3
         3         2         1        33     9      180.000000        0.037511         4
         3         2        26        28     9        0.000000       -0.026394         1
         3         2        26        28     9      180.000000        3.345719         2
         3         2        26        28     9        0.000000        0.076095         3
         3         2        26        28     9      180.000000       -0.069832         4
         3         2        26        32     9        0.000000       -0.026394         1
         3         2        26        32     9      180.000000        3.345720         2
         3         2        26        32     9        0.000000        0.076095         3
         3         2        26        32     9      180.000000       -0.069832         4
         3         6         5         4     9        0.000000       -0.279466         1
         3         6         5         4     9      180.000000        9.658472         2
         3         6         5         4     9        0.000000       -1.702057         3
         3         6         5         4     9      180.000000        0.044590         4
         3         6         5         9     9        0.000000       -0.100185         1
         3         6         5         9     9      180.000000       10.502377         2
         3         6         5         9     9        0.000000       -1.953015         3
         3         6         5         9     9      180.000000       -0.037576         4
         3         6         7         8     9        0.000000        1.172761         1
         3         6         7         8     9      180.000000        4.992195         2
         3         6         7         8     9        0.000000        0.303042         3
         3         6         7         8     9      180.000000       -0.023761         4
         3         6         7        36     9        0.000000       -0.692865         1
         3         6         7        36     9      180.000000        1.320214         2
         3         6         7        36     9        0.000000       -0.052524         3
         3         6         7        36     9      180.000000       -0.069403         4
         4         1         2        26     9        0.000000        0.169262         1
         4         1         2        26     9      180.000000       14.744908         2
         4         1         2        26     9        0.000000       -0.143614         3
         4         1         2        26     9      180.000000       -0.239308         4
         4         5         6         7     9        0.000000        0.425775         1
         4         5         6         7     9      180.000000        9.581193         2
         4         5         6         7     9        0.000000       -1.726253         3
         4         5         6         7     9      180.000000        0.055261         4
         4         5         9         8     9        0.000000       -0.057317         1
         4         5         9         8     9      180.000000        4.578282         2
         4         5         9         8     9        0.000000       -1.039769         3
         4         5         9         8     9      180.000000        0.131046         4
         4         5         9        10     9        0.000000        0.169143         1
         4         5         9        10     9      180.000000        5.931452         2
         4         5         9        10     9        0.000000        0.454689         3
         4         5         9        10     9      180.000000       -0.075041         4
         5         4         1        33     9        0.000000        0.110566         1
         5         4         1        33     9      180.000000       16.270615         2
         5         4         1        33     9        0.000000       -0.412617         3
         5         4         1        33     9      180.000000        0.033245         4
         5         6         3        34     9        0.000000        0.099078         1
         5         6         3        34     9      180.000000       11.721828         2
         5         6         3        34     9        0.000000       -0.252059         3
         5         6         3        34     9      180.000000        0.007236         4
         5         6         7         8     9        0.000000        0.529974         1
         5         6         7         8     9      180.000000       23.729260         2
         5         6         7         8     9        0.000000       -4.705221         3
         5         6         7         8     9      180.000000       -1.155288         4
         5         6         7        36     9        0.000000        0.544120         1
         5         6         7        36     9      180.000000        1.409646         2
         5         6         7        36     9        0.000000        0.413059         3
         5         6         7        36     9      180.000000        0.048850         4
         5         9         8         7     9        0.000000       -0.407533         1
         5         9         8         7     9      180.000000       37.617718         2
         5         9         8         7     9        0.000000       -4.126274         3
         5         9         8         7     9      180.000000        0.018891         4
         5         9        10        11     9        0.000000        0.838387         1
         5         9        10        11     9      180.000000        3.017756         2
         5         9        10        11     9        0.000000        0.348479         3
         5         9        10        11     9      180.000000       -0.062472         4
         5         9        10        12     9        0.000000       -0.060158         1
         5         9        10        12     9      180.000000        2.229744         2
         5         9        10        12     9        0.000000       -0.183529         3
         5         9        10        12     9      180.000000       -0.102884         4
         6         3         2        26     9        0.000000        0.235688         1
         6         3         2        26     9      180.000000       20.088651         2
         6         3         2        26     9        0.000000        0.092576         3
         6         3         2        26     9      180.000000       -0.903256         4
         6         5         4        35     9        0.000000        0.215332         1
         6         5         4        35     9      180.000000       13.464928         2
         6         5         4        35     9        0.000000       -0.384752         3
         6         5         4        35     9      180.000000       -0.030744         4
         6         5         9         8     9        0.000000       -0.460749         1
         6         5         9         8     9      180.000000       30.076953         2
         6         5         9         8     9        0.000000       -9.809587         3
         6         5         9         8     9      180.000000       -0.108449         4
         6         5         9        10     9        0.000000        1.034459         1
         6         5         9        10     9      180.000000       16.821711         2
         6         5         9        10     9        0.000000       -0.224394         3
         6         5         9        10     9      180.000000       -1.061671         4
         6         7         8         9     9        0.000000       -0.031572         1
         6         7         8         9     9      180.000000       21.327951         2
         6         7         8         9     9        0.000000       -2.166790         3
         6         7         8         9     9      180.000000       -0.947561         4
         7         6         3        34     9        0.000000       -0.055684         1
         7         6         3        34     9      180.000000       10.604744         2
         7         6         3        34     9        0.000000        0.013921         3
         7         6         3        34     9      180.000000        0.089439         4
         7         6         5         9     9        0.000000        0.259161         1
         7         6         5         9     9      180.000000       16.809293         2
         7         6         5         9     9        0.000000       -5.227338         3
         7         6         5         9     9      180.000000       -0.325912         4
         7         8         9        10     9        0.000000        0.795489         1
         7         8         9        10     9      180.000000       31.770648         2
         7         8         9        10     9        0.000000        1.331061         3
         7         8         9        10     9      180.000000       -1.209786         4
         8         9        10        11     9        0.000000        0.539428         1
         8         9        10        11     9      180.000000        3.785728         2
         8         9        10        11     9        0.000000       -0.325839         3
         8         9        10        11     9      180.000000        0.116329         4
         8         9        10        12     9        0.000000        0.657073         1
         8         9        10        12     9      180.000000        2.918871         2
         8         9        10        12     9        0.000000        0.344699         3
         8         9        10        12     9      180.000000       -0.118837         4
         9         5         4        35     9        0.000000        0.011984         1
         9         5         4        35     9      180.000000        9.588434         2
         9         5         4        35     9        0.000000       -0.022456         3
         9         5         4        35     9      180.000000        0.113056         4
         9         8         7        36     9        0.000000        1.779463         1
         9         8         7        36     9      180.000000        4.252348         2
         9         8         7        36     9        0.000000        0.406530         3
         9         8         7        36     9      180.000000       -0.124108         4
         9        10        11        14     9        0.000000        1.016913         1
         9        10        11        14     9      180.000000       10.893483         2
         9        10        11        14     9        0.000000        0.597977         3
         9        10        11        14     9      180.000000       -0.510303         4
         9        10        11        37     9        0.000000       -0.731223         1
         9        10        11        37     9      180.000000        1.551980         2
         9        10        11        37     9        0.000000       -0.019945         3
         9        10        11        37     9      180.000000       -0.089541         4
         9        10        12        13     9        0.000000        0.330131         1
         9        10        12        13     9      180.000000       19.922010         2
         9        10        12        13     9        0.000000       -0.051986         3
         9        10        12        13     9      180.000000       -1.494159         4
         9        10        12        38     9        0.000000       -0.093761         1
         9        10        12        38     9      180.000000       12.711677         2
         9        10        12        38     9        0.000000       -0.290686         3
         9        10        12        38     9      180.000000       -0.047875         4
        10        11        14        13     9        0.000000       -0.265782         1
        10        11        14        13     9      180.000000       18.548794         2
        10        11        14        13     9        0.000000       -3.718642         3
        10        11        14        13     9      180.000000       -0.568234         4
        10        11        14        15     9        0.000000        0.342725         1
        10        11        14        15     9      180.000000        3.578985         2
        10        11        14        15     9        0.000000        0.671999         3
        10        11        14        15     9      180.000000        0.060759         4
        10        12        13        14     9        0.000000       -0.189760         1
        10        12        13        14     9      180.000000       26.545747         2
        10        12        13        14     9        0.000000       -7.734337         3
        10        12        13        14     9      180.000000       -0.101177         4
        10        12        13        18     9        0.000000        0.333904         1
        10        12        13        18     9      180.000000        4.966556         2
        10        12        13        18     9        0.000000       -0.021350         3
        10        12        13        18     9      180.000000       -0.127696         4
        11        10        12        13     9        0.000000       -0.384049         1
        11        10        12        13     9      180.000000       30.847781         2
        11        10        12        13     9        0.000000       -5.882406         3
        11        10        12        13     9      180.000000       -0.738096         4
        11        10        12        38     9        0.000000       -0.208855         1
        11        10        12        38     9      180.000000       15.439502         2
        11        10        12        38     9        0.000000       -0.451777         3
        11        10        12        38     9      180.000000       -0.226957         4
        11        14        13        12     9        0.000000        0.336582         1
        11        14        13        12     9      180.000000       18.386561         2
        11        14        13        12     9        0.000000       -5.273211         3
        11        14        13        12     9      180.000000       -0.354630         4
        11        14        13        18     9        0.000000        0.315759         1
        11        14        13        18     9      180.000000       10.854582         2
        11        14        13        18     9        0.000000       -1.621106         3
        11        14        13        18     9      180.000000       -0.113402         4
        11        14        15        16     9        0.000000        0.233748         1
        11        14        15        16     9      180.000000       15.245659         2
        11        14        15        16     9        0.000000       -0.036583         3
        11        14        15        16     9      180.000000       -0.222307         4
        11        14        15        39     9        0.000000       -0.141852         1
        11        14        15        39     9      180.000000       11.257604         2
        11        14        15        39     9        0.000000       -0.030213         3
        11        14        15        39     9      180.000000        0.130882         4
        12        10        11        14     9        0.000000        0.063635         1
        12        10        11        14     9      180.000000       18.838630         2
        12        10        11        14     9        0.000000       -5.407668         3
        12        10        11        14     9      180.000000       -0.541921         4
        12        10        11        37     9        0.000000       -1.128438         1
        12        10        11        37     9      180.000000        2.375408         2
        12        10        11        37     9        0.000000        0.273838         3
        12        10        11        37     9      180.000000        0.242639         4
        12        13        14        15     9        0.000000        0.026380         1
        12        13        14        15     9      180.000000        9.740390         2
        12        13        14        15     9        0.000000       -1.537542         3
        12        13        14        15     9      180.000000        0.038336         4
        12        13        18        17     9        0.000000        0.232595         1
        12        13        18        17     9      180.000000       14.006439         2
        12        13        18        17     9        0.000000       -0.477713         3
        12        13        18        17     9      180.000000       -0.321864         4
        12        13        18        41     9        0.000000        0.068439         1
        12        13        18        41     9      180.000000       10.607843         2
        12        13        18        41     9        0.000000       -0.059897         3
        12        13        18        41     9      180.000000        0.061277         4
        13        14        11        37     9        0.000000        0.060217         1
        13        14        11        37     9      180.000000        1.233275         2
        13        14        11        37     9        0.000000        0.211642         3
        13        14        11        37     9      180.000000        0.041954         4
        13        14        15        16     9        0.000000       -0.045533         1
        13        14        15        16     9      180.000000       17.207435         2
        13        14        15        16     9        0.000000       -1.559634         3
        13        14        15        16     9      180.000000       -0.300273         4
        13        14        15        39     9        0.000000        0.165080         1
        13        14        15        39     9      180.000000       11.983177         2
        13        14        15        39     9        0.000000       -0.139937         3
        13        14        15        39     9      180.000000       -0.000811         4
        13        18        17        16     9        0.000000       -0.037501         1
        13        18        17        16     9      180.000000       20.636420         2
        13        18        17        16     9        0.000000       -1.546996         3
        13        18        17        16     9      180.000000       -0.599422         4
        13        18        17        19     9        0.000000        0.265536         1
        13        18        17        19     9      180.000000       17.137058         2
        13        18        17        19     9        0.000000        0.100863         3
        13        18        17        19     9      180.000000       -0.498016         4
        14        13        12        38     9        0.000000        1.031704         1
        14        13        12        38     9      180.000000       11.253080         2
        14        13        12        38     9        0.000000        0.319281         3
        14        13        12        38     9      180.000000       -0.385662         4
        14        13        18        17     9        0.000000       -0.081543         1
        14        13        18        17     9      180.000000       19.370271         2
        14        13        18        17     9        0.000000       -1.673895         3
        14        13        18        17     9      180.000000       -0.550291         4
        14        13        18        41     9        0.000000        0.420282         1
        14        13        18        41     9      180.000000       13.608947         2
        14        13        18        41     9        0.000000       -0.137859         3
        14        13        18        41     9      180.000000       -0.185992         4
        14        15        16        17     9        0.000000       -0.102544         1
        14        15        16        17     9      180.000000       21.940856         2
        14        15        16        17     9        0.000000       -1.646905         3
        14        15        16        17     9      180.000000       -0.626166         4
        14        15        16        40     9        0.000000        0.047989         1
        14        15        16        40     9      180.000000       17.069876         2
        14        15        16        40     9        0.000000       -0.598388         3
        14        15        16        40     9      180.000000       -0.210061         4
        15        14        11        37     9        0.000000       -0.258692         1
        15        14        11        37     9      180.000000        0.808008         2
        15        14        11        37     9        0.000000        0.218709         3
        15        14        11        37     9      180.000000       -0.061191         4
        15        14        13        18     9        0.000000       -0.011740         1
        15        14        13        18     9      180.000000       10.681982         2
        15        14        13        18     9        0.000000       -1.107452         3
        15        14        13        18     9      180.000000       -0.059133         4
        15        16        17        18     9        0.000000        0.118539         1
        15        16        17        18     9      180.000000       18.060670         2
        15        16        17        18     9        0.000000       -1.477352         3
        15        16        17        18     9      180.000000       -0.395645         4
        15        16        17        19     9        0.000000        0.415498         1
        15        16        17        19     9      180.000000       13.920626         2
        15        16        17        19     9        0.000000       -0.017355         3
        15        16        17        19     9      180.000000       -0.065278         4
        16        17        18        41     9        0.000000        0.135532         1
        16        17        18        41     9      180.000000       14.395434         2
        16        17        18        41     9        0.000000       -0.566527         3
        16        17        18        41     9      180.000000       -0.066211         4
        16        17        19        20     9        0.000000        0.549497         1
        16        17        19        20     9      180.000000       -1.449968         2
        16        17        19        20     9        0.000000        0.395881         3
        16        17        19        20     9      180.000000        0.044452         4
        16        17        19        42     9        0.000000       -0.029204         1
        16        17        19        42     9      180.000000        0.223046         2
        16        17        19        42     9        0.000000        0.195529         3
        16        17        19        42     9      180.000000       -0.025331         4
        16        17        19        43     9        0.000000       -0.029204         1
        16        17        19        43     9      180.000000        0.223046         2
        16        17        19        43     9        0.000000        0.195529         3
        16        17        19        43     9      180.000000       -0.025331         4
        17        16        15        39     9        0.000000        0.034577         1
        17        16        15        39     9      180.000000       15.336710         2
        17        16        15        39     9        0.000000       -0.493478         3
        17        16        15        39     9      180.000000        0.031911         4
        17        19        20        21     9        0.000000       -0.125206         1
        17        19        20        21     9      180.000000        0.007019         2
        17        19        20        21     9        0.000000        1.047824         3
        17        19        20        21     9      180.000000        0.037227         4
        17        19        20        25     9        0.000000       -0.125206         1
        17        19        20        25     9      180.000000        0.007019         2
        17        19        20        25     9        0.000000        1.047824         3
        17        19        20        25     9      180.000000        0.037227         4
        17        19        20        44     9        0.000000        1.655144         1
        17        19        20        44     9      180.000000       -0.044734         2
        17        19        20        44     9        0.000000        0.617037         3
        17        19        20        44     9      180.000000       -0.103721         4
        18        13        12        38     9        0.000000       -0.483131         1
        18        13        12        38     9      180.000000        4.503046         2
        18        13        12        38     9        0.000000       -0.221609         3
        18        13        12        38     9      180.000000        0.120485         4
        18        17        16        40     9        0.000000        0.109962         1
        18        17        16        40     9      180.000000       13.524185         2
        18        17        16        40     9        0.000000       -0.741933         3
        18        17        16        40     9      180.000000        0.050029         4
        18        17        19        20     9        0.000000       -0.285649         1
        18        17        19        20     9      180.000000       -1.285466         2
        18        17        19        20     9        0.000000        0.178715         3
        18        17        19        20     9      180.000000        0.048292         4
        18        17        19        42     9        0.000000        0.013519         1
        18        17        19        42     9      180.000000        0.170025         2
        18        17        19        42     9        0.000000       -0.029491         3
        18        17        19        42     9      180.000000       -0.045372         4
        18        17        19        43     9        0.000000        0.013519         1
        18        17        19        43     9      180.000000        0.170025         2
        18        17        19        43     9        0.000000       -0.029491         3
        18        17        19        43     9      180.000000       -0.045372         4
        19        17        16        40     9        0.000000       -0.030370         1
        19        17        16        40     9      180.000000       11.438949         2
        19        17        16        40     9        0.000000       -0.465307         3
        19        17        16        40     9      180.000000        0.061061         4
        19        17        18        41     9        0.000000       -0.055057         1
        19        17        18        41     9      180.000000       11.875059         2
        19        17        18        41     9        0.000000       -0.483380         3
        19        17        18        41     9      180.000000        0.115101         4
        19        20        21        22     9        0.000000       -0.167424         1
        19        20        21        22     9      180.000000        0.211122         2
        19        20        21        22     9        0.000000        0.423421         3
        19        20        21        22     9      180.000000        0.080801         4
        19        20        21        45     9        0.000000       -0.030108         1
        19        20        21        45     9      180.000000       -0.018161         2
        19        20        21        45     9        0.000000        0.547066         3
        19        20        21        45     9      180.000000       -0.073417         4
        19        20        21        46     9        0.000000       -0.030108         1
        19        20        21        46     9      180.000000       -0.018161         2
        19        20        21        46     9        0.000000        0.547066         3
        19        20        21        46     9      180.000000       -0.073417         4
        19        20        25        24     9        0.000000       -0.167424         1
        19        20        25        24     9      180.000000        0.211122         2
        19        20        25        24     9        0.000000        0.423421         3
        19        20        25        24     9      180.000000        0.080801         4
        19        20        25        52     9        0.000000       -0.030108         1
        19        20        25        52     9      180.000000       -0.018161         2
        19        20        25        52     9        0.000000        0.547066         3
        19        20        25        52     9      180.000000       -0.073417         4
        19        20        25        53     9        0.000000       -0.030108         1
        19        20        25        53     9      180.000000       -0.018161         2
        19        20        25        53     9        0.000000        0.547066         3
        19        20        25        53     9      180.000000       -0.073417         4
        20        21        22        23     9        0.000000        2.361234         1
        20        21        22        23     9      180.000000       -0.810884         2
        20        21        22        23     9        0.000000        0.415656         3
        20        21        22        23     9      180.000000       -0.090053         4
        20        21        22        47     9        0.000000       -0.040539         1
        20        21        22        47     9      180.000000        0.002388         2
        20        21        22        47     9        0.000000        0.330899         3
        20        21        22        47     9      180.000000       -0.006998         4
        20        21        22        48     9        0.000000       -0.040539         1
        20        21        22        48     9      180.000000        0.002388         2
        20        21        22        48     9        0.000000        0.330899         3
        20        21        22        48     9      180.000000       -0.006998         4
        20        25        24        23     9        0.000000        2.361234         1
        20        25        24        23     9      180.000000       -0.810884         2
        20        25        24        23     9        0.000000        0.415656         3
        20        25        24        23     9      180.000000       -0.090053         4
        20        25        24        50     9        0.000000       -0.040539         1
        20        25        24        50     9      180.000000        0.002388         2
        20        25        24        50     9        0.000000        0.330899         3
        20        25        24        50     9      180.000000       -0.006998         4
        20        25        24        51     9        0.000000       -0.040539         1
        20        25        24        51     9      180.000000        0.002388         2
        20        25        24        51     9        0.000000        0.330899         3
        20        25        24        51     9      180.000000       -0.006998         4
        21        20        19        42     9        0.000000       -0.033109         1
        21        20        19        42     9      180.000000        0.052325         2
        21        20        19        42     9        0.000000        0.803370         3
        21        20        19        42     9      180.000000       -0.026172         4
        21        20        19        43     9        0.000000       -0.033109         1
        21        20        19        43     9      180.000000        0.052325         2
        21        20        19        43     9        0.000000        0.803370         3
        21        20        19        43     9      180.000000       -0.026172         4
        21        20        25        24     9        0.000000        1.197946         1
        21        20        25        24     9      180.000000       -0.864155         2
        21        20        25        24     9        0.000000        0.301044         3
        21        20        25        24     9      180.000000        0.013990         4
        21        20        25        52     9        0.000000       -0.044210         1
        21        20        25        52     9      180.000000        0.072815         2
        21        20        25        52     9        0.000000        0.445484         3
        21        20        25        52     9      180.000000       -0.054902         4
        21        20        25        53     9        0.000000       -0.044210         1
        21        20        25        53     9      180.000000        0.072815         2
        21        20        25        53     9        0.000000        0.445484         3
        21        20        25        53     9      180.000000       -0.054902         4
        21        22        23        24     9        0.000000        0.216913         1
        21        22        23        24     9      180.000000       -0.513401         2
        21        22        23        24     9        0.000000        0.316708         3
        21        22        23        24     9      180.000000        0.032021         4
        21        22        23        27     9        0.000000       -0.049007         1
        21        22        23        27     9      180.000000        0.015482         2
        21        22        23        27     9        0.000000        0.222308         3
        21        22        23        27     9      180.000000       -0.029978         4
        21        22        23        49     9        0.000000       -0.049008         1
        21        22        23        49     9      180.000000        0.015482         2
        21        22        23        49     9        0.000000        0.222308         3
        21        22        23        49     9      180.000000       -0.029978         4
        22        21        20        25     9        0.000000        1.197946         1
        22        21        20        25     9      180.000000       -0.864155         2
        22        21        20        25     9        0.000000        0.301044         3
        22        21        20        25     9      180.000000        0.013990         4
        22        21        20        44     9        0.000000       -0.053865         1
        22        21        20        44     9      180.000000       -0.195077         2
        22        21        20        44     9        0.000000        0.386828         3
        22        21        20        44     9      180.000000        0.036111         4
        22        23        24        25     9        0.000000        0.216913         1
        22        23        24        25     9      180.000000       -0.513401         2
        22        23        24        25     9        0.000000        0.316708         3
        22        23        24        25     9      180.000000        0.032021         4
        22        23        24        50     9        0.000000       -0.013356         1
        22        23        24        50     9      180.000000        0.018224         2
        22        23        24        50     9        0.000000        0.239851         3
        22        23        24        50     9      180.000000       -0.000475         4
        22        23        24        51     9        0.000000       -0.013356         1
        22        23        24        51     9      180.000000        0.018224         2
        22        23        24        51     9        0.000000        0.239851         3
        22        23        24        51     9      180.000000       -0.000475         4
        23        22        21        45     9        0.000000       -0.093091         1
        23        22        21        45     9      180.000000        0.020621         2
        23        22        21        45     9        0.000000        0.421685         3
        23        22        21        45     9      180.000000        0.044448         4
        23        22        21        46     9        0.000000       -0.093091         1
        23        22        21        46     9      180.000000        0.020621         2
        23        22        21        46     9        0.000000        0.421685         3
        23        22        21        46     9      180.000000        0.044448         4
        23        24        25        52     9        0.000000       -0.093091         1
        23        24        25        52     9      180.000000        0.020621         2
        23        24        25        52     9        0.000000        0.421685         3
        23        24        25        52     9      180.000000        0.044448         4
        23        24        25        53     9        0.000000       -0.093091         1
        23        24        25        53     9      180.000000        0.020621         2
        23        24        25        53     9        0.000000        0.421685         3
        23        24        25        53     9      180.000000        0.044448         4
        24        23        22        47     9        0.000000       -0.013356         1
        24        23        22        47     9      180.000000        0.018224         2
        24        23        22        47     9        0.000000        0.239851         3
        24        23        22        47     9      180.000000       -0.000475         4
        24        23        22        48     9        0.000000       -0.013356         1
        24        23        22        48     9      180.000000        0.018224         2
        24        23        22        48     9        0.000000        0.239851         3
        24        23        22        48     9      180.000000       -0.000475         4
        24        25        20        44     9        0.000000       -0.053865         1
        24        25        20        44     9      180.000000       -0.195077         2
        24        25        20        44     9        0.000000        0.386828         3
        24        25        20        44     9      180.000000        0.036111         4
        25        20        19        42     9        0.000000       -0.033109         1
        25        20        19        42     9      180.000000        0.052325         2
        25        20        19        42     9        0.000000        0.803370         3
        25        20        19        42     9      180.000000       -0.026172         4
        25        20        19        43     9        0.000000       -0.033109         1
        25        20        19        43     9      180.000000        0.052325         2
        25        20        19        43     9        0.000000        0.803370         3
        25        20        19        43     9      180.000000       -0.026172         4
        25        20        21        45     9        0.000000       -0.044210         1
        25        20        21        45     9      180.000000        0.072815         2
        25        20        21        45     9        0.000000        0.445484         3
        25        20        21        45     9      180.000000       -0.054902         4
        25        20        21        46     9        0.000000       -0.044210         1
        25        20        21        46     9      180.000000        0.072815         2
        25        20        21        46     9        0.000000        0.445484         3
        25        20        21        46     9      180.000000       -0.054902         4
        25        24        23        27     9        0.000000       -0.049007         1
        25        24        23        27     9      180.000000        0.015482         2
        25        24        23        27     9        0.000000        0.222308         3
        25        24        23        27     9      180.000000       -0.029978         4
        25        24        23        49     9        0.000000       -0.049008         1
        25        24        23        49     9      180.000000        0.015482         2
        25        24        23        49     9        0.000000        0.222308         3
        25        24        23        49     9      180.000000       -0.029978         4
        26         2         1        33     9        0.000000       -0.074894         1
        26         2         1        33     9      180.000000       12.786201         2
        26         2         1        33     9        0.000000       -0.223596         3
        26         2         1        33     9      180.000000        0.172174         4
        26         2         3        34     9        0.000000       -0.023024         1
        26         2         3        34     9      180.000000       13.545877         2
        26         2         3        34     9        0.000000       -0.131957         3
        26         2         3        34     9      180.000000        0.181499         4
        26        28        29        30     9        0.000000       -0.038084         1
        26        28        29        30     9      180.000000       18.941293         2
        26        28        29        30     9        0.000000       -1.473532         3
        26        28        29        30     9      180.000000       -0.334442         4
        26        28        29        55     9        0.000000       -0.068042         1
        26        28        29        55     9      180.000000       14.729358         2
        26        28        29        55     9        0.000000       -0.606107         3
        26        28        29        55     9      180.000000        0.114153         4
        26        32        31        30     9        0.000000       -0.038084         1
        26        32        31        30     9      180.000000       18.941293         2
        26        32        31        30     9        0.000000       -1.473532         3
        26        32        31        30     9      180.000000       -0.334441         4
        26        32        31        57     9        0.000000       -0.068042         1
        26        32        31        57     9      180.000000       14.729358         2
        26        32        31        57     9        0.000000       -0.606107         3
        26        32        31        57     9      180.000000        0.114153         4
        27        23        22        47     9        0.000000        0.007157         1
        27        23        22        47     9      180.000000       -0.013977         2
        27        23        22        47     9        0.000000        0.286858         3
        27        23        22        47     9      180.000000        0.008638         4
        27        23        22        48     9        0.000000        0.007157         1
        27        23        22        48     9      180.000000       -0.013977         2
        27        23        22        48     9        0.000000        0.286858         3
        27        23        22        48     9      180.000000        0.008638         4
        27        23        24        50     9        0.000000        0.007157         1
        27        23        24        50     9      180.000000       -0.013977         2
        27        23        24        50     9        0.000000        0.286858         3
        27        23        24        50     9      180.000000        0.008638         4
        27        23        24        51     9        0.000000        0.007157         1
        27        23        24        51     9      180.000000       -0.013977         2
        27        23        24        51     9        0.000000        0.286858         3
        27        23        24        51     9      180.000000        0.008638         4
        28        26        32        31     9        0.000000       -0.181768         1
        28        26        32        31     9      180.000000       18.256380         2
        28        26        32        31     9        0.000000       -1.426326         3
        28        26        32        31     9      180.000000       -0.310057         4
        28        26        32        58     9        0.000000       -0.133910         1
        28        26        32        58     9      180.000000       14.376047         2
        28        26        32        58     9        0.000000       -0.626724         3
        28        26        32        58     9      180.000000        0.034458         4
        28        29        30        31     9        0.000000        0.010514         1
        28        29        30        31     9      180.000000       18.520926         2
        28        29        30        31     9        0.000000       -1.511506         3
        28        29        30        31     9      180.000000       -0.399402         4
        28        29        30        56     9        0.000000        0.013003         1
        28        29        30        56     9      180.000000       14.010608         2
        28        29        30        56     9        0.000000       -0.702228         3
        28        29        30        56     9      180.000000        0.136440         4
        29        28        26        32     9        0.000000       -0.181769         1
        29        28        26        32     9      180.000000       18.256384         2
        29        28        26        32     9        0.000000       -1.426326         3
        29        28        26        32     9      180.000000       -0.310057         4
        29        30        31        32     9        0.000000        0.010514         1
        29        30        31        32     9      180.000000       18.520928         2
        29        30        31        32     9        0.000000       -1.511506         3
        29        30        31        32     9      180.000000       -0.399403         4
        29        30        31        57     9        0.000000       -0.000464         1
        29        30        31        57     9      180.000000       14.363802         2
        29        30        31        57     9        0.000000       -0.720490         3
        29        30        31        57     9      180.000000        0.160855         4
        30        29        28        54     9        0.000000        0.037460         1
        30        29        28        54     9      180.000000       14.825683         2
        30        29        28        54     9        0.000000       -0.716399         3
        30        29        28        54     9      180.000000        0.162895         4
        30        31        32        58     9        0.000000        0.037459         1
        30        31        32        58     9      180.000000       14.825683         2
        30        31        32        58     9        0.000000       -0.716398         3
        30        31        32        58     9      180.000000        0.162895         4
        31        30        29        55     9        0.000000       -0.000463         1
        31        30        29        55     9      180.000000       14.363800         2
        31        30        29        55     9        0.000000       -0.720490         3
        31        30        29        55     9      180.000000        0.160854         4
        32        26        28        54     9        0.000000       -0.133911         1
        32        26        28        54     9      180.000000       14.376047         2
        32        26        28        54     9        0.000000       -0.626724         3
        32        26        28        54     9      180.000000        0.034458         4
        32        31        30        56     9        0.000000        0.013003         1
        32        31        30        56     9      180.000000       14.010608         2
        32        31        30        56     9        0.000000       -0.702228         3
        32        31        30        56     9      180.000000        0.136440         4
        33         1         4        35     9        0.000000       -0.135810         1
        33         1         4        35     9      180.000000       12.742229         2
        33         1         4        35     9        0.000000       -0.703223         3
        33         1         4        35     9      180.000000        0.336047         4
        39        15        16        40     9        0.000000       -0.008913         1
        39        15        16        40     9      180.000000       12.566191         2
        39        15        16        40     9        0.000000       -0.661925         3
        39        15        16        40     9      180.000000        0.252906         4
        42        19        20        44     9        0.000000        0.012891         1
        42        19        20        44     9      180.000000        0.090470         2
        42        19        20        44     9        0.000000        0.602986         3
        42        19        20        44     9      180.000000       -0.069345         4
        43        19        20        44     9        0.000000        0.012891         1
        43        19        20        44     9      180.000000        0.090470         2
        43        19        20        44     9        0.000000        0.602986         3
        43        19        20        44     9      180.000000       -0.069345         4
        44        20        21        45     9        0.000000       -0.121456         1
        44        20        21        45     9      180.000000        0.136419         2
        44        20        21        45     9        0.000000        0.464455         3
        44        20        21        45     9      180.000000       -0.007453         4
        44        20        21        46     9        0.000000       -0.121456         1
        44        20        21        46     9      180.000000        0.136419         2
        44        20        21        46     9        0.000000        0.464455         3
        44        20        21        46     9      180.000000       -0.007453         4
        44        20        25        52     9        0.000000       -0.121456         1
        44        20        25        52     9      180.000000        0.136419         2
        44        20        25        52     9        0.000000        0.464455         3
        44        20        25        52     9      180.000000       -0.007453         4
        44        20        25        53     9        0.000000       -0.121456         1
        44        20        25        53     9      180.000000        0.136419         2
        44        20        25        53     9        0.000000        0.464455         3
        44        20        25        53     9      180.000000       -0.007453         4
        45        21        22        47     9        0.000000       -0.022405         1
        45        21        22        47     9      180.000000        0.027642         2
        45        21        22        47     9        0.000000        0.442579         3
        45        21        22        47     9      180.000000        0.000549         4
        45        21        22        48     9        0.000000       -0.022405         1
        45        21        22        48     9      180.000000        0.027642         2
        45        21        22        48     9        0.000000        0.442579         3
        45        21        22        48     9      180.000000        0.000549         4
        46        21        22        47     9        0.000000       -0.022405         1
        46        21        22        47     9      180.000000        0.027642         2
        46        21        22        47     9        0.000000        0.442579         3
        46        21        22        47     9      180.000000        0.000549         4
        46        21        22        48     9        0.000000       -0.022405         1
        46        21        22        48     9      180.000000        0.027642         2
        46        21        22        48     9        0.000000        0.442579         3
        46        21        22        48     9      180.000000        0.000549         4
        47        22        23        49     9        0.000000        0.007156         1
        47        22        23        49     9      180.000000       -0.013978         2
        47        22        23        49     9        0.000000        0.286858         3
        47        22        23        49     9      180.000000        0.008639         4
        48        22        23        49     9        0.000000        0.007156         1
        48        22        23        49     9      180.000000       -0.013978         2
        48        22        23        49     9        0.000000        0.286858         3
        48        22        23        49     9      180.000000        0.008639         4
        49        23        24        50     9        0.000000        0.007156         1
        49        23        24        50     9      180.000000       -0.013978         2
        49        23        24        50     9        0.000000        0.286858         3
        49        23        24        50     9      180.000000        0.008639         4
        49        23        24        51     9        0.000000        0.007156         1
        49        23        24        51     9      180.000000       -0.013978         2
        49        23        24        51     9        0.000000        0.286858         3
        49        23        24        51     9      180.000000        0.008639         4
        50        24        25        52     9        0.000000       -0.022405         1
        50        24        25        52     9      180.000000        0.027642         2
        50        24        25        52     9        0.000000        0.442579         3
        50        24        25        52     9      180.000000        0.000549         4
        50        24        25        53     9        0.000000       -0.022405         1
        50        24        25        53     9      180.000000        0.027642         2
        50        24        25        53     9        0.000000        0.442579         3
        50        24        25        53     9      180.000000        0.000549         4
        51        24        25        52     9        0.000000       -0.022405         1
        51        24        25        52     9      180.000000        0.027642         2
        51        24        25        52     9        0.000000        0.442579         3
        51        24        25        52     9      180.000000        0.000549         4
        51        24        25        53     9        0.000000       -0.022405         1
        51        24        25        53     9      180.000000        0.027642         2
        51        24        25        53     9        0.000000        0.442579         3
        51        24        25        53     9      180.000000        0.000549         4
        54        28        29        55     9        0.000000       -0.179807         1
        54        28        29        55     9      180.000000       12.026403         2
        54        28        29        55     9        0.000000       -0.702434         3
        54        28        29        55     9      180.000000        0.334016         4
        55        29        30        56     9        0.000000       -0.079427         1
        55        29        30        56     9      180.000000       11.318324         2
        55        29        30        56     9        0.000000       -0.539704         3
        55        29        30        56     9      180.000000        0.255202         4
        56        30        31        57     9        0.000000       -0.079427         1
        56        30        31        57     9      180.000000       11.318323         2
        56        30        31        57     9        0.000000       -0.539705         3
        56        30        31        57     9      180.000000        0.255202         4
        57        31        32        58     9        0.000000       -0.179807         1
        57        31        32        58     9      180.000000       12.026404         2
        57        31        32        58     9        0.000000       -0.702435         3
        57        31        32        58     9      180.000000        0.334016         4

[ pairs ]
;       ai        aj funct
         1         6     1
         1         9     1
         1        28     1
         1        32     1
         1        34     1
         2         5     1
         2         7     1
         2        29     1
         2        31     1
         2        35     1
         2        54     1
         2        58     1
         3         4     1
         3         8     1
         3         9     1
         3        28     1
         3        32     1
         3        33     1
         3        36     1
         4         7     1
         4         8     1
         4        10     1
         4        26     1
         5        11     1
         5        12     1
         5        33     1
         5        34     1
         5        36     1
         6        10     1
         6        26     1
         6        35     1
         7        10     1
         7        34     1
         8        11     1
         8        12     1
         9        13     1
         9        14     1
         9        35     1
         9        36     1
         9        37     1
         9        38     1
        10        15     1
        10        18     1
        11        16     1
        11        18     1
        11        38     1
        11        39     1
        12        15     1
        12        17     1
        12        37     1
        12        41     1
        13        16     1
        13        19     1
        13        37     1
        13        39     1
        14        17     1
        14        38     1
        14        40     1
        14        41     1
        15        18     1
        15        19     1
        15        37     1
        16        20     1
        16        41     1
        16        42     1
        16        43     1
        17        21     1
        17        25     1
        17        39     1
        17        44     1
        18        20     1
        18        38     1
        18        40     1
        18        42     1
        18        43     1
        19        22     1
        19        24     1
        19        40     1
        19        41     1
        19        45     1
        19        46     1
        19        52     1
        19        53     1
        20        23     1
        20        47     1
        20        48     1
        20        50     1
        20        51     1
        21        24     1
        21        27     1
        21        42     1
        21        43     1
        21        49     1
        21        52     1
        21        53     1
        22        25     1
        22        44     1
        22        50     1
        22        51     1
        23        45     1
        23        46     1
        23        52     1
        23        53     1
        24        44     1
        24        47     1
        24        48     1
        25        27     1
        25        42     1
        25        43     1
        25        45     1
        25        46     1
        25        49     1
        26        30     1
        26        33     1
        26        34     1
        26        55     1
        26        57     1
        27        47     1
        27        48     1
        27        50     1
        27        51     1
        28        31     1
        28        56     1
        28        58     1
        29        32     1
        29        57     1
        30        54     1
        30        58     1
        31        55     1
        32        54     1
        32        56     1
        33        35     1
        39        40     1
        42        44     1
        43        44     1
        44        45     1
        44        46     1
        44        52     1
        44        53     1
        45        47     1
        45        48     1
        46        47     1
        46        48     1
        47        49     1
        48        49     1
        49        50     1
        49        51     1
        50        52     1
        50        53     1
        51        52     1
        51        53     1
        54        55     1
        55        56     1
        56        57     1
        57        58     1
