; ITP file created by ByteFF-ML, 2025-12-06 08:13:33.944268

[ atomtypes ]
;name           bonded.type        at.num        mass        charge   ptype           sigma         epsilon
 c0bf                                   6      0.0000       0.00000       A     3.31462e-01     4.13377e-01
 c1bf                                   6      0.0000       0.00000       A     3.31284e-01     4.12242e-01
 c2bf                                   6      0.0000       0.00000       A     3.31402e-01     4.12325e-01
 c3bf                                   6      0.0000       0.00000       A     3.31567e-01     4.12534e-01
 c4bf                                   6      0.0000       0.00000       A     3.31516e-01     4.12070e-01
 c5bf                                   6      0.0000       0.00000       A     3.31562e-01     4.12043e-01
 n6bf                                   7      0.0000       0.00000       A     3.20413e-01     8.53407e-01
 n7bf                                   7      0.0000       0.00000       A     3.38370e-01     3.92979e-01
 c8bf                                   6      0.0000       0.00000       A     3.31620e-01     4.14723e-01
 c9bf                                   6      0.0000       0.00000       A     3.31059e-01     4.13664e-01
 n10bf                                  7      0.0000       0.00000       A     3.20376e-01     8.55899e-01
 c11bf                                  6      0.0000       0.00000       A     3.31306e-01     4.11917e-01
 c12bf                                  6      0.0000       0.00000       A     3.31510e-01     4.13055e-01
 c13bf                                  6      0.0000       0.00000       A     3.31590e-01     4.12179e-01
 c14bf                                  6      0.0000       0.00000       A     3.31457e-01     4.13497e-01
 c15bf                                  6      0.0000       0.00000       A     3.31456e-01     4.14408e-01
 c16bf                                  6      0.0000       0.00000       A     3.31385e-01     4.12455e-01
 c17bf                                  6      0.0000       0.00000       A     3.31403e-01     4.13537e-01
 c18bf                                  6      0.0000       0.00000       A     3.39680e-01     4.51466e-01
 n19bf                                  7      0.0000       0.00000       A     2.58565e-01     1.06457e+01
 c20bf                                  6      0.0000       0.00000       A     3.39803e-01     4.50476e-01
 c21bf                                  6      0.0000       0.00000       A     3.39660e-01     4.50650e-01
 c22bf                                  6      0.0000       0.00000       A     3.40007e-01     4.50856e-01
 c23bf                                  6      0.0000       0.00000       A     3.39660e-01     4.50650e-01
 c24bf                                  6      0.0000       0.00000       A     3.39803e-01     4.50476e-01
 c25bf                                  6      0.0000       0.00000       A     3.31116e-01     4.11574e-01
 c26bf                                  6      0.0000       0.00000       A     3.31656e-01     4.12633e-01
 n27bf                                  7      0.0000       0.00000       A     3.38380e-01     3.91257e-01
 n28bf                                  7      0.0000       0.00000       A     3.38508e-01     3.91462e-01
 n29bf                                  7      0.0000       0.00000       A     3.20465e-01     8.53843e-01
 c30bf                                  6      0.0000       0.00000       A     3.39562e-01     4.52565e-01
 o31bf                                  8      0.0000       0.00000       A     3.24170e-01     3.78476e-01
 h32bf                                  1      0.0000       0.00000       A     2.62487e-01     6.75983e-02
 h33bf                                  1      0.0000       0.00000       A     2.62575e-01     6.68514e-02
 h34bf                                  1      0.0000       0.00000       A     1.10662e-01     4.14451e-02
 h35bf                                  1      0.0000       0.00000       A     1.10899e-01     4.15233e-02
 h36bf                                  1      0.0000       0.00000       A     2.62647e-01     6.66471e-02
 h37bf                                  1      0.0000       0.00000       A     2.62485e-01     6.72408e-02
 h38bf                                  1      0.0000       0.00000       A     2.62648e-01     6.74100e-02
 h39bf                                  1      0.0000       0.00000       A     2.62452e-01     6.78776e-02
 h40bf                                  1      0.0000       0.00000       A     1.87833e-01     8.63729e-02
 h41bf                                  1      0.0000       0.00000       A     1.87833e-01     8.63729e-02
 h42bf                                  1      0.0000       0.00000       A     1.10702e-01     4.18154e-02
 h43bf                                  1      0.0000       0.00000       A     1.88382e-01     8.65995e-02
 h44bf                                  1      0.0000       0.00000       A     1.88382e-01     8.65995e-02
 h45bf                                  1      0.0000       0.00000       A     2.59967e-01     8.84542e-02
 h46bf                                  1      0.0000       0.00000       A     2.59967e-01     8.84542e-02
 h47bf                                  1      0.0000       0.00000       A     2.60071e-01     8.65532e-02
 h48bf                                  1      0.0000       0.00000       A     2.60071e-01     8.65532e-02
 h49bf                                  1      0.0000       0.00000       A     2.59967e-01     8.84542e-02
 h50bf                                  1      0.0000       0.00000       A     2.59967e-01     8.84542e-02
 h51bf                                  1      0.0000       0.00000       A     1.88382e-01     8.65995e-02
 h52bf                                  1      0.0000       0.00000       A     1.88382e-01     8.65995e-02
 h53bf                                  1      0.0000       0.00000       A     2.42481e-01     8.77583e-02
 h54bf                                  1      0.0000       0.00000       A     2.42481e-01     8.77583e-02
 h55bf                                  1      0.0000       0.00000       A     1.10801e-01     4.08801e-02
 h56bf                                  1      0.0000       0.00000       A     5.40862e-02     2.04201e-02
 h57bf                                  1      0.0000       0.00000       A     2.62590e-01     6.73653e-02

[ moleculetype ]
;name             nrexcl
 21_Xtal               3

[ atoms ]
;       nr            type      resi   res      atom      cgnr      charge          mass ; qtot
         1            c0bf         1   UNL        c0         1    -0.12543       12.0110 ; qtot   -0.125
         2            c1bf         1   UNL        c1         2     0.00361       12.0110 ; qtot   -0.122
         3            c2bf         1   UNL        c2         3    -0.11180       12.0110 ; qtot   -0.234
         4            c3bf         1   UNL        c3         4    -0.02658       12.0110 ; qtot   -0.260
         5            c4bf         1   UNL        c4         5    -0.20889       12.0110 ; qtot   -0.469
         6            c5bf         1   UNL        c5         6    -0.01374       12.0110 ; qtot   -0.483
         7            n6bf         1   UNL        n6         7    -0.06939       14.0070 ; qtot   -0.552
         8            n7bf         1   UNL        n7         8    -0.50860       14.0070 ; qtot   -1.061
         9            c8bf         1   UNL        c8         9     0.42067       12.0110 ; qtot   -0.640
        10            c9bf         1   UNL        c9        10    -0.09417       12.0110 ; qtot   -0.734
        11           n10bf         1   UNL       n10        11    -0.22773       14.0070 ; qtot   -0.962
        12           c11bf         1   UNL       c11        12    -0.19556       12.0110 ; qtot   -1.158
        13           c12bf         1   UNL       c12        13    -0.10699       12.0110 ; qtot   -1.265
        14           c13bf         1   UNL       c13        14    -0.00399       12.0110 ; qtot   -1.269
        15           c14bf         1   UNL       c14        15    -0.10608       12.0110 ; qtot   -1.375
        16           c15bf         1   UNL       c15        16    -0.06975       12.0110 ; qtot   -1.444
        17           c16bf         1   UNL       c16        17    -0.21681       12.0110 ; qtot   -1.661
        18           c17bf         1   UNL       c17        18     0.00617       12.0110 ; qtot   -1.655
        19           c18bf         1   UNL       c18        19     0.19074       12.0110 ; qtot   -1.464
        20           n19bf         1   UNL       n19        20    -0.68619       14.0070 ; qtot   -2.151
        21           c20bf         1   UNL       c20        21     0.11169       12.0110 ; qtot   -2.039
        22           c21bf         1   UNL       c21        22    -0.10586       12.0110 ; qtot   -2.145
        23           c22bf         1   UNL       c22        23    -0.08859       12.0110 ; qtot   -2.233
        24           c23bf         1   UNL       c23        24    -0.10586       12.0110 ; qtot   -2.339
        25           c24bf         1   UNL       c24        25     0.11169       12.0110 ; qtot   -2.227
        26           c25bf         1   UNL       c25        26    -0.08053       12.0110 ; qtot   -2.308
        27           c26bf         1   UNL       c26        27     0.17544       12.0110 ; qtot   -2.133
        28           n27bf         1   UNL       n27        28    -0.36063       14.0070 ; qtot   -2.493
        29           n28bf         1   UNL       n28        29    -0.18452       14.0070 ; qtot   -2.678
        30           n29bf         1   UNL       n29        30    -0.02431       14.0070 ; qtot   -2.702
        31           c30bf         1   UNL       c30        31     0.13895       12.0110 ; qtot   -2.563
        32           o31bf         1   UNL       o31        32    -0.66724       15.9990 ; qtot   -3.230
        33           h32bf         1   UNL       h32        33     0.12959        1.0080 ; qtot   -3.101
        34           h33bf         1   UNL       h33        34     0.12927        1.0080 ; qtot   -2.971
        35           h34bf         1   UNL       h34        35     0.37953        1.0080 ; qtot   -2.592
        36           h35bf         1   UNL       h35        36     0.35537        1.0080 ; qtot   -2.237
        37           h36bf         1   UNL       h36        37     0.20407        1.0080 ; qtot   -2.032
        38           h37bf         1   UNL       h37        38     0.13079        1.0080 ; qtot   -1.902
        39           h38bf         1   UNL       h38        39     0.12413        1.0080 ; qtot   -1.778
        40           h39bf         1   UNL       h39        40     0.12618        1.0080 ; qtot   -1.651
        41           h40bf         1   UNL       h40        41     0.09866        1.0080 ; qtot   -1.553
        42           h41bf         1   UNL       h41        42     0.09866        1.0080 ; qtot   -1.454
        43           h42bf         1   UNL       h42        43     0.50046        1.0080 ; qtot   -0.954
        44           h43bf         1   UNL       h43        44     0.09543        1.0080 ; qtot   -0.858
        45           h44bf         1   UNL       h44        45     0.09543        1.0080 ; qtot   -0.763
        46           h45bf         1   UNL       h45        46     0.08552        1.0080 ; qtot   -0.677
        47           h46bf         1   UNL       h46        47     0.08552        1.0080 ; qtot   -0.592
        48           h47bf         1   UNL       h47        48     0.07775        1.0080 ; qtot   -0.514
        49           h48bf         1   UNL       h48        49     0.07775        1.0080 ; qtot   -0.436
        50           h49bf         1   UNL       h49        50     0.08552        1.0080 ; qtot   -0.351
        51           h50bf         1   UNL       h50        51     0.08552        1.0080 ; qtot   -0.265
        52           h51bf         1   UNL       h51        52     0.09543        1.0080 ; qtot   -0.170
        53           h52bf         1   UNL       h52        53     0.09543        1.0080 ; qtot   -0.074
        54           h53bf         1   UNL       h53        54     0.05814        1.0080 ; qtot   -0.016
        55           h54bf         1   UNL       h54        55     0.05814        1.0080 ; qtot    0.042
        56           h55bf         1   UNL       h55        56     0.37724        1.0080 ; qtot    0.419
        57           h56bf         1   UNL       h56        57     0.46018        1.0080 ; qtot    0.879
        58           h57bf         1   UNL       h57        58     0.12057        1.0080 ; qtot    1.000

[ bonds ]
;       ai        aj funct               r               k
         1         2     1        0.142388   254638.510693
         1         4     1        0.138648   341270.498389
         1        58     1        0.108506   320528.313281
         2         3     1        0.139644   307706.232813
         2        26     1        0.146498   235985.210059
         3         6     1        0.140141   305313.175830
         3        33     1        0.108507   321304.207275
         4         5     1        0.141029   296873.671924
         4        34     1        0.108477   322794.731738
         5         6     1        0.141926   248281.711279
         5         9     1        0.144249   224241.714941
         6         7     1        0.137209   282694.881445
         7         8     1        0.135674   254856.393311
         7        35     1        0.100958   433953.223242
         8         9     1        0.133497   344504.952051
         9        10     1        0.145193   253459.998633
        10        11     1        0.139180   262347.346826
        10        12     1        0.138454   347289.441846
        11        14     1        0.138201   275860.155029
        11        36     1        0.101035   429177.375195
        12        13     1        0.143536   250057.076660
        12        37     1        0.108050   337425.503516
        13        14     1        0.142955   237535.976562
        13        18     1        0.140443   303438.496631
        14        15     1        0.140156   305366.522852
        15        16     1        0.138900   337804.831738
        15        38     1        0.108539   321997.667480
        16        17     1        0.141819   266033.143359
        16        39     1        0.108652   318090.208838
        17        18     1        0.139677   302830.509131
        17        19     1        0.149908   204446.254321
        18        40     1        0.108666   317086.345068
        19        20     1        0.153197   111198.010181
        19        41     1        0.109096   309012.379346
        19        42     1        0.109096   309012.379346
        20        21     1        0.152145   128071.897803
        20        25     1        0.152145   128071.897803
        20        43     1        0.102494   385069.041455
        21        22     1        0.152748   189250.486768
        21        44     1        0.109106   309880.411230
        21        45     1        0.109106   309880.411230
        22        23     1        0.153779   184046.126025
        22        46     1        0.109388   302488.362939
        22        47     1        0.109388   302488.362939
        23        24     1        0.153779   184046.126025
        23        48     1        0.109386   302361.341357
        23        49     1        0.109386   302361.341357
        24        25     1        0.152748   189250.486768
        24        50     1        0.109388   302488.362939
        24        51     1        0.109388   302488.362939
        25        52     1        0.109106   309880.436768
        25        53     1        0.109106   309880.436768
        26        27     1        0.139249   306667.791797
        26        30     1        0.136551   291459.983496
        27        28     1        0.136731   249465.509521
        27        31     1        0.150098   214091.097021
        28        29     1        0.130670   327884.175488
        29        30     1        0.135013   222780.430469
        30        56     1        0.101172   429673.408008
        31        32     1        0.143027   207506.378906
        31        54     1        0.109562   292687.296973
        31        55     1        0.109562   292687.296973
        32        57     1        0.097291   459289.968457

[ angles ]
;       ai        aj        ak funct           theta             cth
         1         2         3     1      120.114403      589.435237
         1         2        26     1      119.563499      542.788068
         1         4         5     1      118.841965      677.344693
         1         4        34     1      120.416649      420.448140
         2         1         4     1      121.729797      643.584251
         2         1        58     1      118.984840      447.463337
         2         3         6     1      117.648972      755.265436
         2         3        33     1      121.066971      425.288220
         2        26        27     1      134.164337      395.560950
         2        26        30     1      123.285439      626.965531
         3         2        26     1      119.990433      439.305508
         3         6         5     1      122.810768      646.865578
         3         6         7     1      131.537872      455.508548
         4         1        58     1      119.295334      428.579954
         4         5         6     1      118.732468      701.072179
         4         5         9     1      136.440170      474.991607
         5         4        34     1      121.022240      436.435935
         5         6         7     1      105.797768      167.360000
         5         9         8     1      110.611916      350.554540
         5         9        10     1      129.210236      400.211641
         6         3        33     1      121.367760      432.027623
         6         5         9     1      104.636353      423.883839
         6         7         8     1      112.692360      421.684743
         6         7        35     1      128.477997      379.513431
         7         8         9     1      106.529152      587.304995
         8         7        35     1      118.725540      478.396534
         8         9        10     1      120.099777      559.250884
         9        10        11     1      120.414673      507.245551
         9        10        12     1      131.034760      447.502696
        10        11        14     1      109.440186      409.573864
        10        11        36     1      123.215820      379.022543
        10        12        13     1      107.464355      383.437239
        10        12        37     1      125.246742      393.800518
        11        10        12     1      108.673904      167.360000
        11        14        13     1      107.344810      298.221055
        11        14        15     1      130.709946      469.443893
        12        13        14     1      106.916115      360.114421
        12        13        18     1      134.237762      411.179095
        13        12        37     1      127.224655      385.462587
        13        14        15     1      122.047226      612.367944
        13        18        17     1      119.376549      655.622253
        13        18        40     1      119.879227      440.646397
        14        11        36     1      125.853867      394.838697
        14        13        18     1      118.799820      745.865546
        14        15        16     1      117.639648      794.148814
        14        15        38     1      121.576096      439.900650
        15        16        17     1      121.524864      583.498880
        15        16        39     1      118.960594      421.153092
        16        15        38     1      120.828659      425.915061
        16        17        18     1      120.372581      616.559733
        16        17        19     1      119.635887      531.878742
        17        16        39     1      119.626991      401.380985
        17        18        40     1      120.674217      396.460974
        17        19        20     1      111.410690      569.172498
        17        19        41     1      112.377319      462.887783
        17        19        42     1      112.377319      462.887783
        18        17        19     1      120.018288      462.537478
        19        20        21     1      112.704857      588.015118
        19        20        25     1      112.704857      588.015118
        19        20        43     1      105.970398      490.093296
        20        19        41     1      105.727821      544.833079
        20        19        42     1      105.727821      544.833079
        20        21        22     1      110.669518      713.348889
        20        21        44     1      106.583885      517.691441
        20        21        45     1      106.583885      517.691410
        20        25        24     1      110.669518      713.348889
        20        25        52     1      106.583885      517.691410
        20        25        53     1      106.583885      517.691410
        21        20        25     1      111.317604      604.395259
        21        20        43     1      106.781754      499.371087
        21        22        23     1      111.364792      654.236737
        21        22        46     1      108.713943      507.855632
        21        22        47     1      108.713943      507.855632
        22        21        44     1      112.117615      482.200988
        22        21        45     1      112.117599      482.200988
        22        23        24     1      110.735153      610.700243
        22        23        48     1      109.863098      503.206027
        22        23        49     1      109.863098      503.206027
        23        22        46     1      110.716568      488.430479
        23        22        47     1      110.716568      488.430479
        23        24        25     1      111.364792      654.236737
        23        24        50     1      110.716568      488.430479
        23        24        51     1      110.716568      488.430479
        24        23        48     1      109.863098      503.206027
        24        23        49     1      109.863098      503.206027
        24        25        52     1      112.117599      482.200988
        24        25        53     1      112.117599      482.200988
        25        20        43     1      106.781754      499.371087
        25        24        50     1      108.713943      507.855632
        25        24        51     1      108.713943      507.855632
        26        27        28     1      108.580139      274.593738
        26        27        31     1      130.951889      472.167267
        26        30        29     1      112.203201      167.360000
        26        30        56     1      128.123001      367.534994
        27        26        30     1      103.011436      179.474932
        27        28        29     1      109.857117      423.530661
        27        31        32     1      111.965042      646.688223
        27        31        54     1      109.579491      476.421270
        27        31        55     1      109.579491      476.421270
        28        27        31     1      120.699661      494.970979
        28        29        30     1      106.626137      716.367567
        29        30        56     1      119.322006      448.433428
        31        32        57     1      106.760254      580.289760
        32        31        54     1      108.736427      450.893067
        32        31        55     1      108.736427      450.893067
        41        19        42     1      108.533302      349.262713
        44        21        45     1      108.492310      346.342034
        46        22        47     1      106.356018      362.065967
        48        23        49     1      106.540710      364.941732
        50        24        51     1      106.356018      362.065967
        52        25        53     1      108.492310      346.342034
        54        31        55     1      107.702927      338.838561

[ dihedrals ] ; propers for gromacs 4.5 or higher, use funct 9
;       ai        aj        ak        al funct           phase               k        pn
         1         2         3         6     9        0.000000       -0.179843         1
         1         2         3         6     9      180.000000       20.707643         2
         1         2         3         6     9        0.000000       -1.724219         3
         1         2         3         6     9      180.000000       -0.538118         4
         1         2         3        33     9        0.000000        0.004872         1
         1         2         3        33     9      180.000000       13.851874         2
         1         2         3        33     9        0.000000       -0.433773         3
         1         2         3        33     9      180.000000        0.084824         4
         1         2        26        27     9        0.000000       -0.230276         1
         1         2        26        27     9      180.000000        2.812396         2
         1         2        26        27     9        0.000000       -0.147456         3
         1         2        26        27     9      180.000000        0.007463         4
         1         2        26        30     9        0.000000        0.110279         1
         1         2        26        30     9      180.000000        4.224975         2
         1         2        26        30     9        0.000000        0.177632         3
         1         2        26        30     9      180.000000        0.177377         4
         1         4         5         6     9        0.000000        0.091740         1
         1         4         5         6     9      180.000000       19.807490         2
         1         4         5         6     9        0.000000       -2.392126         3
         1         4         5         6     9      180.000000       -0.429843         4
         1         4         5         9     9        0.000000       -0.043141         1
         1         4         5         9     9      180.000000       12.204442         2
         1         4         5         9     9        0.000000       -0.411309         3
         1         4         5         9     9      180.000000        0.019675         4
         2         1         4         5     9        0.000000       -0.020856         1
         2         1         4         5     9      180.000000       21.033389         2
         2         1         4         5     9        0.000000       -1.709646         3
         2         1         4         5     9      180.000000       -0.409635         4
         2         1         4        34     9        0.000000        0.000310         1
         2         1         4        34     9      180.000000       15.692037         2
         2         1         4        34     9        0.000000       -0.410302         3
         2         1         4        34     9      180.000000        0.102343         4
         2         3         6         5     9        0.000000       -0.149504         1
         2         3         6         5     9      180.000000       16.529501         2
         2         3         6         5     9        0.000000       -1.611947         3
         2         3         6         5     9      180.000000       -0.321677         4
         2         3         6         7     9        0.000000        0.160010         1
         2         3         6         7     9      180.000000       14.999347         2
         2         3         6         7     9        0.000000       -0.265550         3
         2         3         6         7     9      180.000000       -0.323683         4
         2        26        27        28     9        0.000000        0.227072         1
         2        26        27        28     9      180.000000       17.303319         2
         2        26        27        28     9        0.000000       -0.102936         3
         2        26        27        28     9      180.000000       -1.103090         4
         2        26        27        31     9        0.000000       -0.197301         1
         2        26        27        31     9      180.000000       10.299161         2
         2        26        27        31     9        0.000000        0.439561         3
         2        26        27        31     9      180.000000       -0.103186         4
         2        26        30        29     9        0.000000        0.838852         1
         2        26        30        29     9      180.000000       15.195665         2
         2        26        30        29     9        0.000000        0.639962         3
         2        26        30        29     9      180.000000       -1.106070         4
         2        26        30        56     9        0.000000       -0.181442         1
         2        26        30        56     9      180.000000        3.316548         2
         2        26        30        56     9        0.000000       -0.098712         3
         2        26        30        56     9      180.000000       -0.039392         4
         3         2         1         4     9        0.000000       -0.094307         1
         3         2         1         4     9      180.000000       16.624320         2
         3         2         1         4     9        0.000000       -1.243176         3
         3         2         1         4     9      180.000000       -0.340496         4
         3         2         1        58     9        0.000000        0.036554         1
         3         2         1        58     9      180.000000       12.422808         2
         3         2         1        58     9        0.000000       -0.499452         3
         3         2         1        58     9      180.000000        0.132235         4
         3         2        26        27     9        0.000000       -0.188826         1
         3         2        26        27     9      180.000000        2.671950         2
         3         2        26        27     9        0.000000       -0.185842         3
         3         2        26        27     9      180.000000       -0.029153         4
         3         2        26        30     9        0.000000       -0.108984         1
         3         2        26        30     9      180.000000        3.976862         2
         3         2        26        30     9        0.000000        0.203283         3
         3         2        26        30     9      180.000000        0.077379         4
         3         6         5         4     9        0.000000       -0.288374         1
         3         6         5         4     9      180.000000        9.391604         2
         3         6         5         4     9        0.000000       -1.663002         3
         3         6         5         4     9      180.000000        0.083233         4
         3         6         5         9     9        0.000000       -0.099522         1
         3         6         5         9     9      180.000000       10.375038         2
         3         6         5         9     9        0.000000       -1.964316         3
         3         6         5         9     9      180.000000       -0.015494         4
         3         6         7         8     9        0.000000        1.077353         1
         3         6         7         8     9      180.000000        4.970618         2
         3         6         7         8     9        0.000000        0.215959         3
         3         6         7         8     9      180.000000       -0.034005         4
         3         6         7        35     9        0.000000       -0.632495         1
         3         6         7        35     9      180.000000        1.300773         2
         3         6         7        35     9        0.000000       -0.053307         3
         3         6         7        35     9      180.000000       -0.060421         4
         4         1         2        26     9        0.000000        0.155228         1
         4         1         2        26     9      180.000000       14.859918         2
         4         1         2        26     9        0.000000       -0.177515         3
         4         1         2        26     9      180.000000       -0.334947         4
         4         5         6         7     9        0.000000        0.408845         1
         4         5         6         7     9      180.000000        9.578803         2
         4         5         6         7     9        0.000000       -1.714424         3
         4         5         6         7     9      180.000000        0.059570         4
         4         5         9         8     9        0.000000       -0.073262         1
         4         5         9         8     9      180.000000        4.622283         2
         4         5         9         8     9        0.000000       -1.035835         3
         4         5         9         8     9      180.000000        0.129341         4
         4         5         9        10     9        0.000000        0.192496         1
         4         5         9        10     9      180.000000        5.961220         2
         4         5         9        10     9        0.000000        0.456990         3
         4         5         9        10     9      180.000000       -0.081382         4
         5         4         1        58     9        0.000000        0.116613         1
         5         4         1        58     9      180.000000       16.565894         2
         5         4         1        58     9        0.000000       -0.382679         3
         5         4         1        58     9      180.000000       -0.004741         4
         5         6         3        33     9        0.000000        0.084018         1
         5         6         3        33     9      180.000000       11.785087         2
         5         6         3        33     9        0.000000       -0.241638         3
         5         6         3        33     9      180.000000        0.003897         4
         5         6         7         8     9        0.000000        0.555557         1
         5         6         7         8     9      180.000000       23.578216         2
         5         6         7         8     9        0.000000       -4.686670         3
         5         6         7         8     9      180.000000       -1.165898         4
         5         6         7        35     9        0.000000        0.590134         1
         5         6         7        35     9      180.000000        1.392975         2
         5         6         7        35     9        0.000000        0.415335         3
         5         6         7        35     9      180.000000        0.042070         4
         5         9         8         7     9        0.000000       -0.418552         1
         5         9         8         7     9      180.000000       37.593522         2
         5         9         8         7     9        0.000000       -4.111731         3
         5         9         8         7     9      180.000000        0.014899         4
         5         9        10        11     9        0.000000        0.806903         1
         5         9        10        11     9      180.000000        3.026526         2
         5         9        10        11     9        0.000000        0.344460         3
         5         9        10        11     9      180.000000       -0.063225         4
         5         9        10        12     9        0.000000       -0.066838         1
         5         9        10        12     9      180.000000        2.238543         2
         5         9        10        12     9        0.000000       -0.182816         3
         5         9        10        12     9      180.000000       -0.102441         4
         6         3         2        26     9        0.000000        0.251480         1
         6         3         2        26     9      180.000000       20.096504         2
         6         3         2        26     9        0.000000       -0.033708         3
         6         3         2        26     9      180.000000       -1.009982         4
         6         5         4        34     9        0.000000        0.223774         1
         6         5         4        34     9      180.000000       13.450798         2
         6         5         4        34     9        0.000000       -0.389612         3
         6         5         4        34     9      180.000000       -0.022971         4
         6         5         9         8     9        0.000000       -0.484697         1
         6         5         9         8     9      180.000000       30.053431         2
         6         5         9         8     9        0.000000       -9.816347         3
         6         5         9         8     9      180.000000       -0.104606         4
         6         5         9        10     9        0.000000        1.062444         1
         6         5         9        10     9      180.000000       16.826310         2
         6         5         9        10     9        0.000000       -0.245751         3
         6         5         9        10     9      180.000000       -1.067342         4
         6         7         8         9     9        0.000000       -0.032672         1
         6         7         8         9     9      180.000000       21.378740         2
         6         7         8         9     9        0.000000       -2.151056         3
         6         7         8         9     9      180.000000       -0.964039         4
         7         6         3        33     9        0.000000       -0.007055         1
         7         6         3        33     9      180.000000       10.943461         2
         7         6         3        33     9        0.000000        0.040877         3
         7         6         3        33     9      180.000000        0.078938         4
         7         6         5         9     9        0.000000        0.284063         1
         7         6         5         9     9      180.000000       16.977727         2
         7         6         5         9     9        0.000000       -5.273699         3
         7         6         5         9     9      180.000000       -0.326734         4
         7         8         9        10     9        0.000000        0.810242         1
         7         8         9        10     9      180.000000       31.756533         2
         7         8         9        10     9        0.000000        1.337243         3
         7         8         9        10     9      180.000000       -1.207537         4
         8         9        10        11     9        0.000000        0.539428         1
         8         9        10        11     9      180.000000        3.785728         2
         8         9        10        11     9        0.000000       -0.325839         3
         8         9        10        11     9      180.000000        0.116329         4
         8         9        10        12     9        0.000000        0.657073         1
         8         9        10        12     9      180.000000        2.918871         2
         8         9        10        12     9        0.000000        0.344699         3
         8         9        10        12     9      180.000000       -0.118837         4
         9         5         4        34     9        0.000000        0.002079         1
         9         5         4        34     9      180.000000        9.589846         2
         9         5         4        34     9        0.000000       -0.013737         3
         9         5         4        34     9      180.000000        0.112667         4
         9         8         7        35     9        0.000000        1.778084         1
         9         8         7        35     9      180.000000        4.278802         2
         9         8         7        35     9        0.000000        0.405985         3
         9         8         7        35     9      180.000000       -0.125475         4
         9        10        11        14     9        0.000000        1.016913         1
         9        10        11        14     9      180.000000       10.893483         2
         9        10        11        14     9        0.000000        0.597977         3
         9        10        11        14     9      180.000000       -0.510303         4
         9        10        11        36     9        0.000000       -0.731223         1
         9        10        11        36     9      180.000000        1.551980         2
         9        10        11        36     9        0.000000       -0.019945         3
         9        10        11        36     9      180.000000       -0.089541         4
         9        10        12        13     9        0.000000        0.330131         1
         9        10        12        13     9      180.000000       19.922010         2
         9        10        12        13     9        0.000000       -0.051986         3
         9        10        12        13     9      180.000000       -1.494159         4
         9        10        12        37     9        0.000000       -0.093761         1
         9        10        12        37     9      180.000000       12.711677         2
         9        10        12        37     9        0.000000       -0.290686         3
         9        10        12        37     9      180.000000       -0.047875         4
        10        11        14        13     9        0.000000       -0.265782         1
        10        11        14        13     9      180.000000       18.548794         2
        10        11        14        13     9        0.000000       -3.718642         3
        10        11        14        13     9      180.000000       -0.568234         4
        10        11        14        15     9        0.000000        0.342725         1
        10        11        14        15     9      180.000000        3.578985         2
        10        11        14        15     9        0.000000        0.671999         3
        10        11        14        15     9      180.000000        0.060759         4
        10        12        13        14     9        0.000000       -0.189760         1
        10        12        13        14     9      180.000000       26.545747         2
        10        12        13        14     9        0.000000       -7.734337         3
        10        12        13        14     9      180.000000       -0.101177         4
        10        12        13        18     9        0.000000        0.333904         1
        10        12        13        18     9      180.000000        4.966556         2
        10        12        13        18     9        0.000000       -0.021350         3
        10        12        13        18     9      180.000000       -0.127696         4
        11        10        12        13     9        0.000000       -0.384049         1
        11        10        12        13     9      180.000000       30.847781         2
        11        10        12        13     9        0.000000       -5.882406         3
        11        10        12        13     9      180.000000       -0.738096         4
        11        10        12        37     9        0.000000       -0.208855         1
        11        10        12        37     9      180.000000       15.439502         2
        11        10        12        37     9        0.000000       -0.451777         3
        11        10        12        37     9      180.000000       -0.226957         4
        11        14        13        12     9        0.000000        0.336582         1
        11        14        13        12     9      180.000000       18.386561         2
        11        14        13        12     9        0.000000       -5.273211         3
        11        14        13        12     9      180.000000       -0.354630         4
        11        14        13        18     9        0.000000        0.315759         1
        11        14        13        18     9      180.000000       10.854582         2
        11        14        13        18     9        0.000000       -1.621106         3
        11        14        13        18     9      180.000000       -0.113402         4
        11        14        15        16     9        0.000000        0.233748         1
        11        14        15        16     9      180.000000       15.245659         2
        11        14        15        16     9        0.000000       -0.036583         3
        11        14        15        16     9      180.000000       -0.222307         4
        11        14        15        38     9        0.000000       -0.141852         1
        11        14        15        38     9      180.000000       11.257604         2
        11        14        15        38     9        0.000000       -0.030213         3
        11        14        15        38     9      180.000000        0.130882         4
        12        10        11        14     9        0.000000        0.063635         1
        12        10        11        14     9      180.000000       18.838630         2
        12        10        11        14     9        0.000000       -5.407668         3
        12        10        11        14     9      180.000000       -0.541921         4
        12        10        11        36     9        0.000000       -1.128438         1
        12        10        11        36     9      180.000000        2.375408         2
        12        10        11        36     9        0.000000        0.273838         3
        12        10        11        36     9      180.000000        0.242639         4
        12        13        14        15     9        0.000000        0.026380         1
        12        13        14        15     9      180.000000        9.740390         2
        12        13        14        15     9        0.000000       -1.537542         3
        12        13        14        15     9      180.000000        0.038336         4
        12        13        18        17     9        0.000000        0.232595         1
        12        13        18        17     9      180.000000       14.006439         2
        12        13        18        17     9        0.000000       -0.477713         3
        12        13        18        17     9      180.000000       -0.321864         4
        12        13        18        40     9        0.000000        0.068439         1
        12        13        18        40     9      180.000000       10.607843         2
        12        13        18        40     9        0.000000       -0.059897         3
        12        13        18        40     9      180.000000        0.061277         4
        13        14        11        36     9        0.000000        0.060217         1
        13        14        11        36     9      180.000000        1.233275         2
        13        14        11        36     9        0.000000        0.211642         3
        13        14        11        36     9      180.000000        0.041954         4
        13        14        15        16     9        0.000000       -0.045533         1
        13        14        15        16     9      180.000000       17.207435         2
        13        14        15        16     9        0.000000       -1.559634         3
        13        14        15        16     9      180.000000       -0.300273         4
        13        14        15        38     9        0.000000        0.165080         1
        13        14        15        38     9      180.000000       11.983177         2
        13        14        15        38     9        0.000000       -0.139937         3
        13        14        15        38     9      180.000000       -0.000811         4
        13        18        17        16     9        0.000000       -0.037501         1
        13        18        17        16     9      180.000000       20.636420         2
        13        18        17        16     9        0.000000       -1.546996         3
        13        18        17        16     9      180.000000       -0.599422         4
        13        18        17        19     9        0.000000        0.265536         1
        13        18        17        19     9      180.000000       17.137058         2
        13        18        17        19     9        0.000000        0.100863         3
        13        18        17        19     9      180.000000       -0.498016         4
        14        13        12        37     9        0.000000        1.031704         1
        14        13        12        37     9      180.000000       11.253080         2
        14        13        12        37     9        0.000000        0.319281         3
        14        13        12        37     9      180.000000       -0.385662         4
        14        13        18        17     9        0.000000       -0.081543         1
        14        13        18        17     9      180.000000       19.370271         2
        14        13        18        17     9        0.000000       -1.673895         3
        14        13        18        17     9      180.000000       -0.550291         4
        14        13        18        40     9        0.000000        0.420282         1
        14        13        18        40     9      180.000000       13.608947         2
        14        13        18        40     9        0.000000       -0.137859         3
        14        13        18        40     9      180.000000       -0.185992         4
        14        15        16        17     9        0.000000       -0.102544         1
        14        15        16        17     9      180.000000       21.940856         2
        14        15        16        17     9        0.000000       -1.646905         3
        14        15        16        17     9      180.000000       -0.626166         4
        14        15        16        39     9        0.000000        0.047989         1
        14        15        16        39     9      180.000000       17.069876         2
        14        15        16        39     9        0.000000       -0.598388         3
        14        15        16        39     9      180.000000       -0.210061         4
        15        14        11        36     9        0.000000       -0.258692         1
        15        14        11        36     9      180.000000        0.808008         2
        15        14        11        36     9        0.000000        0.218709         3
        15        14        11        36     9      180.000000       -0.061191         4
        15        14        13        18     9        0.000000       -0.011740         1
        15        14        13        18     9      180.000000       10.681982         2
        15        14        13        18     9        0.000000       -1.107452         3
        15        14        13        18     9      180.000000       -0.059133         4
        15        16        17        18     9        0.000000        0.118539         1
        15        16        17        18     9      180.000000       18.060670         2
        15        16        17        18     9        0.000000       -1.477352         3
        15        16        17        18     9      180.000000       -0.395645         4
        15        16        17        19     9        0.000000        0.415498         1
        15        16        17        19     9      180.000000       13.920626         2
        15        16        17        19     9        0.000000       -0.017355         3
        15        16        17        19     9      180.000000       -0.065278         4
        16        17        18        40     9        0.000000        0.135532         1
        16        17        18        40     9      180.000000       14.395434         2
        16        17        18        40     9        0.000000       -0.566527         3
        16        17        18        40     9      180.000000       -0.066211         4
        16        17        19        20     9        0.000000        0.549497         1
        16        17        19        20     9      180.000000       -1.449968         2
        16        17        19        20     9        0.000000        0.395881         3
        16        17        19        20     9      180.000000        0.044452         4
        16        17        19        41     9        0.000000       -0.029204         1
        16        17        19        41     9      180.000000        0.223046         2
        16        17        19        41     9        0.000000        0.195529         3
        16        17        19        41     9      180.000000       -0.025331         4
        16        17        19        42     9        0.000000       -0.029204         1
        16        17        19        42     9      180.000000        0.223046         2
        16        17        19        42     9        0.000000        0.195529         3
        16        17        19        42     9      180.000000       -0.025331         4
        17        16        15        38     9        0.000000        0.034577         1
        17        16        15        38     9      180.000000       15.336710         2
        17        16        15        38     9        0.000000       -0.493478         3
        17        16        15        38     9      180.000000        0.031911         4
        17        19        20        21     9        0.000000       -0.125206         1
        17        19        20        21     9      180.000000        0.007019         2
        17        19        20        21     9        0.000000        1.047824         3
        17        19        20        21     9      180.000000        0.037227         4
        17        19        20        25     9        0.000000       -0.125206         1
        17        19        20        25     9      180.000000        0.007019         2
        17        19        20        25     9        0.000000        1.047824         3
        17        19        20        25     9      180.000000        0.037227         4
        17        19        20        43     9        0.000000        1.655144         1
        17        19        20        43     9      180.000000       -0.044734         2
        17        19        20        43     9        0.000000        0.617037         3
        17        19        20        43     9      180.000000       -0.103721         4
        18        13        12        37     9        0.000000       -0.483131         1
        18        13        12        37     9      180.000000        4.503046         2
        18        13        12        37     9        0.000000       -0.221609         3
        18        13        12        37     9      180.000000        0.120485         4
        18        17        16        39     9        0.000000        0.109962         1
        18        17        16        39     9      180.000000       13.524185         2
        18        17        16        39     9        0.000000       -0.741933         3
        18        17        16        39     9      180.000000        0.050029         4
        18        17        19        20     9        0.000000       -0.285649         1
        18        17        19        20     9      180.000000       -1.285466         2
        18        17        19        20     9        0.000000        0.178715         3
        18        17        19        20     9      180.000000        0.048292         4
        18        17        19        41     9        0.000000        0.013519         1
        18        17        19        41     9      180.000000        0.170025         2
        18        17        19        41     9        0.000000       -0.029491         3
        18        17        19        41     9      180.000000       -0.045372         4
        18        17        19        42     9        0.000000        0.013519         1
        18        17        19        42     9      180.000000        0.170025         2
        18        17        19        42     9        0.000000       -0.029491         3
        18        17        19        42     9      180.000000       -0.045372         4
        19        17        16        39     9        0.000000       -0.030370         1
        19        17        16        39     9      180.000000       11.438949         2
        19        17        16        39     9        0.000000       -0.465307         3
        19        17        16        39     9      180.000000        0.061061         4
        19        17        18        40     9        0.000000       -0.055057         1
        19        17        18        40     9      180.000000       11.875059         2
        19        17        18        40     9        0.000000       -0.483380         3
        19        17        18        40     9      180.000000        0.115101         4
        19        20        21        22     9        0.000000       -0.167424         1
        19        20        21        22     9      180.000000        0.211122         2
        19        20        21        22     9        0.000000        0.423421         3
        19        20        21        22     9      180.000000        0.080801         4
        19        20        21        44     9        0.000000       -0.030109         1
        19        20        21        44     9      180.000000       -0.018162         2
        19        20        21        44     9        0.000000        0.547066         3
        19        20        21        44     9      180.000000       -0.073417         4
        19        20        21        45     9        0.000000       -0.030108         1
        19        20        21        45     9      180.000000       -0.018161         2
        19        20        21        45     9        0.000000        0.547066         3
        19        20        21        45     9      180.000000       -0.073417         4
        19        20        25        24     9        0.000000       -0.167424         1
        19        20        25        24     9      180.000000        0.211122         2
        19        20        25        24     9        0.000000        0.423421         3
        19        20        25        24     9      180.000000        0.080801         4
        19        20        25        52     9        0.000000       -0.030108         1
        19        20        25        52     9      180.000000       -0.018161         2
        19        20        25        52     9        0.000000        0.547066         3
        19        20        25        52     9      180.000000       -0.073417         4
        19        20        25        53     9        0.000000       -0.030108         1
        19        20        25        53     9      180.000000       -0.018161         2
        19        20        25        53     9        0.000000        0.547066         3
        19        20        25        53     9      180.000000       -0.073417         4
        20        21        22        23     9        0.000000        2.361234         1
        20        21        22        23     9      180.000000       -0.810884         2
        20        21        22        23     9        0.000000        0.415656         3
        20        21        22        23     9      180.000000       -0.090053         4
        20        21        22        46     9        0.000000       -0.040539         1
        20        21        22        46     9      180.000000        0.002388         2
        20        21        22        46     9        0.000000        0.330899         3
        20        21        22        46     9      180.000000       -0.006998         4
        20        21        22        47     9        0.000000       -0.040539         1
        20        21        22        47     9      180.000000        0.002388         2
        20        21        22        47     9        0.000000        0.330899         3
        20        21        22        47     9      180.000000       -0.006998         4
        20        25        24        23     9        0.000000        2.361234         1
        20        25        24        23     9      180.000000       -0.810884         2
        20        25        24        23     9        0.000000        0.415656         3
        20        25        24        23     9      180.000000       -0.090053         4
        20        25        24        50     9        0.000000       -0.040539         1
        20        25        24        50     9      180.000000        0.002388         2
        20        25        24        50     9        0.000000        0.330899         3
        20        25        24        50     9      180.000000       -0.006998         4
        20        25        24        51     9        0.000000       -0.040539         1
        20        25        24        51     9      180.000000        0.002388         2
        20        25        24        51     9        0.000000        0.330899         3
        20        25        24        51     9      180.000000       -0.006998         4
        21        20        19        41     9        0.000000       -0.033109         1
        21        20        19        41     9      180.000000        0.052325         2
        21        20        19        41     9        0.000000        0.803370         3
        21        20        19        41     9      180.000000       -0.026172         4
        21        20        19        42     9        0.000000       -0.033109         1
        21        20        19        42     9      180.000000        0.052325         2
        21        20        19        42     9        0.000000        0.803370         3
        21        20        19        42     9      180.000000       -0.026172         4
        21        20        25        24     9        0.000000        1.197946         1
        21        20        25        24     9      180.000000       -0.864155         2
        21        20        25        24     9        0.000000        0.301044         3
        21        20        25        24     9      180.000000        0.013990         4
        21        20        25        52     9        0.000000       -0.044210         1
        21        20        25        52     9      180.000000        0.072815         2
        21        20        25        52     9        0.000000        0.445484         3
        21        20        25        52     9      180.000000       -0.054902         4
        21        20        25        53     9        0.000000       -0.044210         1
        21        20        25        53     9      180.000000        0.072815         2
        21        20        25        53     9        0.000000        0.445484         3
        21        20        25        53     9      180.000000       -0.054902         4
        21        22        23        24     9        0.000000        0.216913         1
        21        22        23        24     9      180.000000       -0.513401         2
        21        22        23        24     9        0.000000        0.316708         3
        21        22        23        24     9      180.000000        0.032021         4
        21        22        23        48     9        0.000000       -0.049008         1
        21        22        23        48     9      180.000000        0.015482         2
        21        22        23        48     9        0.000000        0.222308         3
        21        22        23        48     9      180.000000       -0.029978         4
        21        22        23        49     9        0.000000       -0.049008         1
        21        22        23        49     9      180.000000        0.015482         2
        21        22        23        49     9        0.000000        0.222308         3
        21        22        23        49     9      180.000000       -0.029978         4
        22        21        20        25     9        0.000000        1.197946         1
        22        21        20        25     9      180.000000       -0.864155         2
        22        21        20        25     9        0.000000        0.301044         3
        22        21        20        25     9      180.000000        0.013990         4
        22        21        20        43     9        0.000000       -0.053865         1
        22        21        20        43     9      180.000000       -0.195077         2
        22        21        20        43     9        0.000000        0.386828         3
        22        21        20        43     9      180.000000        0.036111         4
        22        23        24        25     9        0.000000        0.216913         1
        22        23        24        25     9      180.000000       -0.513401         2
        22        23        24        25     9        0.000000        0.316708         3
        22        23        24        25     9      180.000000        0.032021         4
        22        23        24        50     9        0.000000       -0.013356         1
        22        23        24        50     9      180.000000        0.018224         2
        22        23        24        50     9        0.000000        0.239851         3
        22        23        24        50     9      180.000000       -0.000475         4
        22        23        24        51     9        0.000000       -0.013356         1
        22        23        24        51     9      180.000000        0.018224         2
        22        23        24        51     9        0.000000        0.239851         3
        22        23        24        51     9      180.000000       -0.000475         4
        23        22        21        44     9        0.000000       -0.093092         1
        23        22        21        44     9      180.000000        0.020621         2
        23        22        21        44     9        0.000000        0.421685         3
        23        22        21        44     9      180.000000        0.044448         4
        23        22        21        45     9        0.000000       -0.093091         1
        23        22        21        45     9      180.000000        0.020621         2
        23        22        21        45     9        0.000000        0.421685         3
        23        22        21        45     9      180.000000        0.044448         4
        23        24        25        52     9        0.000000       -0.093091         1
        23        24        25        52     9      180.000000        0.020621         2
        23        24        25        52     9        0.000000        0.421685         3
        23        24        25        52     9      180.000000        0.044448         4
        23        24        25        53     9        0.000000       -0.093091         1
        23        24        25        53     9      180.000000        0.020621         2
        23        24        25        53     9        0.000000        0.421685         3
        23        24        25        53     9      180.000000        0.044448         4
        24        23        22        46     9        0.000000       -0.013356         1
        24        23        22        46     9      180.000000        0.018224         2
        24        23        22        46     9        0.000000        0.239851         3
        24        23        22        46     9      180.000000       -0.000475         4
        24        23        22        47     9        0.000000       -0.013356         1
        24        23        22        47     9      180.000000        0.018224         2
        24        23        22        47     9        0.000000        0.239851         3
        24        23        22        47     9      180.000000       -0.000475         4
        24        25        20        43     9        0.000000       -0.053865         1
        24        25        20        43     9      180.000000       -0.195077         2
        24        25        20        43     9        0.000000        0.386828         3
        24        25        20        43     9      180.000000        0.036111         4
        25        20        19        41     9        0.000000       -0.033109         1
        25        20        19        41     9      180.000000        0.052325         2
        25        20        19        41     9        0.000000        0.803370         3
        25        20        19        41     9      180.000000       -0.026172         4
        25        20        19        42     9        0.000000       -0.033109         1
        25        20        19        42     9      180.000000        0.052325         2
        25        20        19        42     9        0.000000        0.803370         3
        25        20        19        42     9      180.000000       -0.026172         4
        25        20        21        44     9        0.000000       -0.044210         1
        25        20        21        44     9      180.000000        0.072815         2
        25        20        21        44     9        0.000000        0.445484         3
        25        20        21        44     9      180.000000       -0.054902         4
        25        20        21        45     9        0.000000       -0.044210         1
        25        20        21        45     9      180.000000        0.072815         2
        25        20        21        45     9        0.000000        0.445484         3
        25        20        21        45     9      180.000000       -0.054902         4
        25        24        23        48     9        0.000000       -0.049008         1
        25        24        23        48     9      180.000000        0.015482         2
        25        24        23        48     9        0.000000        0.222308         3
        25        24        23        48     9      180.000000       -0.029978         4
        25        24        23        49     9        0.000000       -0.049008         1
        25        24        23        49     9      180.000000        0.015482         2
        25        24        23        49     9        0.000000        0.222308         3
        25        24        23        49     9      180.000000       -0.029978         4
        26         2         1        58     9        0.000000        0.021446         1
        26         2         1        58     9      180.000000       12.843664         2
        26         2         1        58     9        0.000000       -0.220940         3
        26         2         1        58     9      180.000000        0.143714         4
        26         2         3        33     9        0.000000       -0.045108         1
        26         2         3        33     9      180.000000       13.623479         2
        26         2         3        33     9        0.000000       -0.170760         3
        26         2         3        33     9      180.000000        0.106825         4
        26        27        28        29     9        0.000000       -0.145475         1
        26        27        28        29     9      180.000000       37.100484         2
        26        27        28        29     9        0.000000       -6.312259         3
        26        27        28        29     9      180.000000       -0.009889         4
        26        27        31        32     9        0.000000        0.446609         1
        26        27        31        32     9      180.000000       -0.859687         2
        26        27        31        32     9        0.000000        0.085081         3
        26        27        31        32     9      180.000000        0.026644         4
        26        27        31        54     9        0.000000       -0.109028         1
        26        27        31        54     9      180.000000        0.036419         2
        26        27        31        54     9        0.000000       -0.054741         3
        26        27        31        54     9      180.000000       -0.062220         4
        26        27        31        55     9        0.000000       -0.109028         1
        26        27        31        55     9      180.000000        0.036419         2
        26        27        31        55     9        0.000000       -0.054741         3
        26        27        31        55     9      180.000000       -0.062220         4
        26        30        29        28     9        0.000000       -0.050602         1
        26        30        29        28     9      180.000000       30.494800         2
        26        30        29        28     9        0.000000       -5.284318         3
        26        30        29        28     9      180.000000       -0.318319         4
        27        26        30        29     9        0.000000        0.136369         1
        27        26        30        29     9      180.000000       24.184397         2
        27        26        30        29     9        0.000000       -6.341913         3
        27        26        30        29     9      180.000000       -0.102542         4
        27        26        30        56     9        0.000000       -0.482652         1
        27        26        30        56     9      180.000000        3.309973         2
        27        26        30        56     9        0.000000        0.091331         3
        27        26        30        56     9      180.000000        0.121540         4
        27        28        29        30     9        0.000000        0.015280         1
        27        28        29        30     9      180.000000       45.355985         2
        27        28        29        30     9        0.000000       -4.928003         3
        27        28        29        30     9      180.000000        0.383619         4
        27        31        32        57     9        0.000000        4.195015         1
        27        31        32        57     9      180.000000       -2.110623         2
        27        31        32        57     9        0.000000        1.035560         3
        27        31        32        57     9      180.000000        0.319689         4
        28        27        26        30     9        0.000000        0.170100         1
        28        27        26        30     9      180.000000       34.105604         2
        28        27        26        30     9        0.000000       -8.821585         3
        28        27        26        30     9      180.000000        0.054097         4
        28        27        31        32     9        0.000000        1.021974         1
        28        27        31        32     9      180.000000       -0.737654         2
        28        27        31        32     9        0.000000       -0.302194         3
        28        27        31        32     9      180.000000        0.190531         4
        28        27        31        54     9        0.000000        0.023959         1
        28        27        31        54     9      180.000000        0.112850         2
        28        27        31        54     9        0.000000       -0.460532         3
        28        27        31        54     9      180.000000       -0.000197         4
        28        27        31        55     9        0.000000        0.023959         1
        28        27        31        55     9      180.000000        0.112850         2
        28        27        31        55     9        0.000000       -0.460532         3
        28        27        31        55     9      180.000000       -0.000197         4
        28        29        30        56     9        0.000000        2.801849         1
        28        29        30        56     9      180.000000       11.391436         2
        28        29        30        56     9        0.000000        0.317930         3
        28        29        30        56     9      180.000000       -0.248735         4
        29        28        27        31     9        0.000000        0.502171         1
        29        28        27        31     9      180.000000       24.870204         2
        29        28        27        31     9        0.000000        0.910322         3
        29        28        27        31     9      180.000000       -0.699470         4
        30        26        27        31     9        0.000000        0.276052         1
        30        26        27        31     9      180.000000       14.739597         2
        30        26        27        31     9        0.000000       -0.027903         3
        30        26        27        31     9      180.000000       -0.765217         4
        34         4         1        58     9        0.000000       -0.139359         1
        34         4         1        58     9      180.000000       12.757761         2
        34         4         1        58     9        0.000000       -0.659346         3
        34         4         1        58     9      180.000000        0.327716         4
        38        15        16        39     9        0.000000       -0.008913         1
        38        15        16        39     9      180.000000       12.566191         2
        38        15        16        39     9        0.000000       -0.661925         3
        38        15        16        39     9      180.000000        0.252906         4
        41        19        20        43     9        0.000000        0.012891         1
        41        19        20        43     9      180.000000        0.090470         2
        41        19        20        43     9        0.000000        0.602986         3
        41        19        20        43     9      180.000000       -0.069345         4
        42        19        20        43     9        0.000000        0.012891         1
        42        19        20        43     9      180.000000        0.090470         2
        42        19        20        43     9        0.000000        0.602986         3
        42        19        20        43     9      180.000000       -0.069345         4
        43        20        21        44     9        0.000000       -0.121456         1
        43        20        21        44     9      180.000000        0.136419         2
        43        20        21        44     9        0.000000        0.464454         3
        43        20        21        44     9      180.000000       -0.007453         4
        43        20        21        45     9        0.000000       -0.121456         1
        43        20        21        45     9      180.000000        0.136419         2
        43        20        21        45     9        0.000000        0.464455         3
        43        20        21        45     9      180.000000       -0.007453         4
        43        20        25        52     9        0.000000       -0.121456         1
        43        20        25        52     9      180.000000        0.136419         2
        43        20        25        52     9        0.000000        0.464455         3
        43        20        25        52     9      180.000000       -0.007453         4
        43        20        25        53     9        0.000000       -0.121456         1
        43        20        25        53     9      180.000000        0.136419         2
        43        20        25        53     9        0.000000        0.464455         3
        43        20        25        53     9      180.000000       -0.007453         4
        44        21        22        46     9        0.000000       -0.022405         1
        44        21        22        46     9      180.000000        0.027642         2
        44        21        22        46     9        0.000000        0.442579         3
        44        21        22        46     9      180.000000        0.000549         4
        44        21        22        47     9        0.000000       -0.022405         1
        44        21        22        47     9      180.000000        0.027642         2
        44        21        22        47     9        0.000000        0.442579         3
        44        21        22        47     9      180.000000        0.000549         4
        45        21        22        46     9        0.000000       -0.022405         1
        45        21        22        46     9      180.000000        0.027642         2
        45        21        22        46     9        0.000000        0.442579         3
        45        21        22        46     9      180.000000        0.000549         4
        45        21        22        47     9        0.000000       -0.022405         1
        45        21        22        47     9      180.000000        0.027642         2
        45        21        22        47     9        0.000000        0.442579         3
        45        21        22        47     9      180.000000        0.000549         4
        46        22        23        48     9        0.000000        0.007156         1
        46        22        23        48     9      180.000000       -0.013978         2
        46        22        23        48     9        0.000000        0.286858         3
        46        22        23        48     9      180.000000        0.008639         4
        46        22        23        49     9        0.000000        0.007156         1
        46        22        23        49     9      180.000000       -0.013978         2
        46        22        23        49     9        0.000000        0.286858         3
        46        22        23        49     9      180.000000        0.008639         4
        47        22        23        48     9        0.000000        0.007156         1
        47        22        23        48     9      180.000000       -0.013978         2
        47        22        23        48     9        0.000000        0.286858         3
        47        22        23        48     9      180.000000        0.008639         4
        47        22        23        49     9        0.000000        0.007156         1
        47        22        23        49     9      180.000000       -0.013978         2
        47        22        23        49     9        0.000000        0.286858         3
        47        22        23        49     9      180.000000        0.008639         4
        48        23        24        50     9        0.000000        0.007156         1
        48        23        24        50     9      180.000000       -0.013978         2
        48        23        24        50     9        0.000000        0.286858         3
        48        23        24        50     9      180.000000        0.008639         4
        48        23        24        51     9        0.000000        0.007156         1
        48        23        24        51     9      180.000000       -0.013978         2
        48        23        24        51     9        0.000000        0.286858         3
        48        23        24        51     9      180.000000        0.008639         4
        49        23        24        50     9        0.000000        0.007156         1
        49        23        24        50     9      180.000000       -0.013978         2
        49        23        24        50     9        0.000000        0.286858         3
        49        23        24        50     9      180.000000        0.008639         4
        49        23        24        51     9        0.000000        0.007156         1
        49        23        24        51     9      180.000000       -0.013978         2
        49        23        24        51     9        0.000000        0.286858         3
        49        23        24        51     9      180.000000        0.008639         4
        50        24        25        52     9        0.000000       -0.022405         1
        50        24        25        52     9      180.000000        0.027642         2
        50        24        25        52     9        0.000000        0.442579         3
        50        24        25        52     9      180.000000        0.000549         4
        50        24        25        53     9        0.000000       -0.022405         1
        50        24        25        53     9      180.000000        0.027642         2
        50        24        25        53     9        0.000000        0.442579         3
        50        24        25        53     9      180.000000        0.000549         4
        51        24        25        52     9        0.000000       -0.022405         1
        51        24        25        52     9      180.000000        0.027642         2
        51        24        25        52     9        0.000000        0.442579         3
        51        24        25        52     9      180.000000        0.000549         4
        51        24        25        53     9        0.000000       -0.022405         1
        51        24        25        53     9      180.000000        0.027642         2
        51        24        25        53     9        0.000000        0.442579         3
        51        24        25        53     9      180.000000        0.000549         4
        54        31        32        57     9        0.000000       -0.244380         1
        54        31        32        57     9      180.000000       -0.264632         2
        54        31        32        57     9        0.000000        0.814510         3
        54        31        32        57     9      180.000000        0.018501         4
        55        31        32        57     9        0.000000       -0.244380         1
        55        31        32        57     9      180.000000       -0.264632         2
        55        31        32        57     9        0.000000        0.814510         3
        55        31        32        57     9      180.000000        0.018501         4

[ pairs ]
;       ai        aj funct
         1         6     1
         1         9     1
         1        27     1
         1        30     1
         1        33     1
         2         5     1
         2         7     1
         2        28     1
         2        29     1
         2        31     1
         2        34     1
         2        56     1
         3         4     1
         3         8     1
         3         9     1
         3        27     1
         3        30     1
         3        35     1
         3        58     1
         4         7     1
         4         8     1
         4        10     1
         4        26     1
         5        11     1
         5        12     1
         5        33     1
         5        35     1
         5        58     1
         6        10     1
         6        26     1
         6        34     1
         7        10     1
         7        33     1
         8        11     1
         8        12     1
         9        13     1
         9        14     1
         9        34     1
         9        35     1
         9        36     1
         9        37     1
        10        15     1
        10        18     1
        11        16     1
        11        18     1
        11        37     1
        11        38     1
        12        15     1
        12        17     1
        12        36     1
        12        40     1
        13        16     1
        13        19     1
        13        36     1
        13        38     1
        14        17     1
        14        37     1
        14        39     1
        14        40     1
        15        18     1
        15        19     1
        15        36     1
        16        20     1
        16        40     1
        16        41     1
        16        42     1
        17        21     1
        17        25     1
        17        38     1
        17        43     1
        18        20     1
        18        37     1
        18        39     1
        18        41     1
        18        42     1
        19        22     1
        19        24     1
        19        39     1
        19        40     1
        19        44     1
        19        45     1
        19        52     1
        19        53     1
        20        23     1
        20        46     1
        20        47     1
        20        50     1
        20        51     1
        21        24     1
        21        41     1
        21        42     1
        21        48     1
        21        49     1
        21        52     1
        21        53     1
        22        25     1
        22        43     1
        22        50     1
        22        51     1
        23        44     1
        23        45     1
        23        52     1
        23        53     1
        24        43     1
        24        46     1
        24        47     1
        25        41     1
        25        42     1
        25        44     1
        25        45     1
        25        48     1
        25        49     1
        26        32     1
        26        33     1
        26        54     1
        26        55     1
        26        58     1
        27        56     1
        27        57     1
        28        32     1
        28        54     1
        28        55     1
        28        56     1
        29        31     1
        30        31     1
        34        58     1
        38        39     1
        41        43     1
        42        43     1
        43        44     1
        43        45     1
        43        52     1
        43        53     1
        44        46     1
        44        47     1
        45        46     1
        45        47     1
        46        48     1
        46        49     1
        47        48     1
        47        49     1
        48        50     1
        48        51     1
        49        50     1
        49        51     1
        50        52     1
        50        53     1
        51        52     1
        51        53     1
        54        57     1
        55        57     1
