; ITP file created by ByteFF-ML, 2026-02-21 07:44:47.747328

[ atomtypes ]
;name           bonded.type        at.num        mass        charge   ptype           sigma         epsilon
 n0bf                                   7      0.0000       0.00000       A     3.27892e-01     6.44858e-01
 c1bf                                   6      0.0000       0.00000       A     3.31468e-01     4.11280e-01
 c2bf                                   6      0.0000       0.00000       A     3.31588e-01     4.14303e-01
 c3bf                                   6      0.0000       0.00000       A     3.31169e-01     4.10702e-01
 c4bf                                   6      0.0000       0.00000       A     3.31581e-01     4.11588e-01
 c5bf                                   6      0.0000       0.00000       A     3.31387e-01     4.12836e-01
 c6bf                                   6      0.0000       0.00000       A     3.31696e-01     4.13506e-01
 c7bf                                   6      0.0000       0.00000       A     3.31420e-01     4.09858e-01
 c8bf                                   6      0.0000       0.00000       A     3.31417e-01     4.13037e-01
 c9bf                                   6      0.0000       0.00000       A     3.31516e-01     4.13372e-01
 c10bf                                  6      0.0000       0.00000       A     3.31421e-01     4.12921e-01
 c11bf                                  6      0.0000       0.00000       A     3.31536e-01     4.12022e-01
 c12bf                                  6      0.0000       0.00000       A     3.31301e-01     4.13151e-01
 c13bf                                  6      0.0000       0.00000       A     3.31466e-01     4.13157e-01
 c14bf                                  6      0.0000       0.00000       A     3.31464e-01     4.12298e-01
 n15bf                                  7      0.0000       0.00000       A     3.20674e-01     8.54162e-01
 c16bf                                  6      0.0000       0.00000       A     3.39830e-01     4.50430e-01
 n17bf                                  7      0.0000       0.00000       A     3.38456e-01     3.92772e-01
 c18bf                                  6      0.0000       0.00000       A     3.31562e-01     4.13392e-01
 c19bf                                  6      0.0000       0.00000       A     3.31514e-01     4.13144e-01
 n20bf                                  7      0.0000       0.00000       A     3.38246e-01     3.93082e-01
 c21bf                                  6      0.0000       0.00000       A     3.31356e-01     4.13226e-01
 c22bf                                  6      0.0000       0.00000       A     3.31479e-01     4.12906e-01
 n23bf                                  7      0.0000       0.00000       A     3.38332e-01     3.93777e-01
 c24bf                                  6      0.0000       0.00000       A     3.31513e-01     4.12767e-01
 c25bf                                  6      0.0000       0.00000       A     3.31439e-01     4.12812e-01
 c26bf                                  6      0.0000       0.00000       A     3.31510e-01     4.12951e-01
 h27bf                                  1      0.0000       0.00000       A     1.10985e-01     4.00869e-02
 h28bf                                  1      0.0000       0.00000       A     2.62381e-01     6.75967e-02
 h29bf                                  1      0.0000       0.00000       A     2.62399e-01     6.76733e-02
 h30bf                                  1      0.0000       0.00000       A     2.62523e-01     6.73238e-02
 h31bf                                  1      0.0000       0.00000       A     2.62498e-01     6.69232e-02
 h32bf                                  1      0.0000       0.00000       A     2.62405e-01     6.76334e-02
 h33bf                                  1      0.0000       0.00000       A     2.62695e-01     6.74962e-02
 h34bf                                  1      0.0000       0.00000       A     2.53862e-01     6.73015e-02
 h35bf                                  1      0.0000       0.00000       A     2.41969e-01     8.74279e-02
 h36bf                                  1      0.0000       0.00000       A     2.41969e-01     8.74279e-02
 h37bf                                  1      0.0000       0.00000       A     2.41969e-01     8.74279e-02
 h38bf                                  1      0.0000       0.00000       A     2.53506e-01     6.72855e-02
 h39bf                                  1      0.0000       0.00000       A     2.53506e-01     6.72855e-02
 h40bf                                  1      0.0000       0.00000       A     2.53631e-01     6.77180e-02
 h41bf                                  1      0.0000       0.00000       A     2.53706e-01     6.70365e-02
 h42bf                                  1      0.0000       0.00000       A     2.62506e-01     6.74387e-02
 h43bf                                  1      0.0000       0.00000       A     2.62530e-01     6.71897e-02

[ moleculetype ]
;name             nrexcl
 23_flip_a             3

[ atoms ]
;       nr            type      resi   res      atom      cgnr      charge          mass ; qtot
         1            n0bf         1   UNL        n0         1    -0.97655       14.0070 ; qtot   -0.977
         2            c1bf         1   UNL        c1         2     0.31933       12.0110 ; qtot   -0.657
         3            c2bf         1   UNL        c2         3    -0.13516       12.0110 ; qtot   -0.792
         4            c3bf         1   UNL        c3         4     0.02972       12.0110 ; qtot   -0.763
         5            c4bf         1   UNL        c4         5     0.21965       12.0110 ; qtot   -0.543
         6            c5bf         1   UNL        c5         6     0.25847       12.0110 ; qtot   -0.285
         7            c6bf         1   UNL        c6         7    -0.14718       12.0110 ; qtot   -0.432
         8            c7bf         1   UNL        c7         8    -0.02826       12.0110 ; qtot   -0.460
         9            c8bf         1   UNL        c8         9    -0.11542       12.0110 ; qtot   -0.575
        10            c9bf         1   UNL        c9        10    -0.07162       12.0110 ; qtot   -0.647
        11           c10bf         1   UNL       c10        11    -0.09246       12.0110 ; qtot   -0.739
        12           c11bf         1   UNL       c11        12    -0.04872       12.0110 ; qtot   -0.788
        13           c12bf         1   UNL       c12        13    -0.10478       12.0110 ; qtot   -0.893
        14           c13bf         1   UNL       c13        14    -0.24093       12.0110 ; qtot   -1.134
        15           c14bf         1   UNL       c14        15    -0.14808       12.0110 ; qtot   -1.282
        16           n15bf         1   UNL       n15        16    -0.10934       14.0070 ; qtot   -1.391
        17           c16bf         1   UNL       c16        17     0.06426       12.0110 ; qtot   -1.327
        18           n17bf         1   UNL       n17        18    -0.62285       14.0070 ; qtot   -1.950
        19           c18bf         1   UNL       c18        19     0.29405       12.0110 ; qtot   -1.656
        20           c19bf         1   UNL       c19        20     0.29317       12.0110 ; qtot   -1.363
        21           n20bf         1   UNL       n20        21    -0.62228       14.0070 ; qtot   -1.985
        22           c21bf         1   UNL       c21        22     0.25176       12.0110 ; qtot   -1.733
        23           c22bf         1   UNL       c22        23     0.28413       12.0110 ; qtot   -1.449
        24           n23bf         1   UNL       n23        24    -0.63647       14.0070 ; qtot   -2.086
        25           c24bf         1   UNL       c24        25     0.30720       12.0110 ; qtot   -1.778
        26           c25bf         1   UNL       c25        26    -0.13835       12.0110 ; qtot   -1.917
        27           c26bf         1   UNL       c26        27    -0.12759       12.0110 ; qtot   -2.044
        28           h27bf         1   UNL       h27        28     0.48204        1.0080 ; qtot   -1.562
        29           h28bf         1   UNL       h28        29     0.12730        1.0080 ; qtot   -1.435
        30           h29bf         1   UNL       h29        30     0.14328        1.0080 ; qtot   -1.292
        31           h30bf         1   UNL       h30        31     0.12044        1.0080 ; qtot   -1.171
        32           h31bf         1   UNL       h31        32     0.11787        1.0080 ; qtot   -1.053
        33           h32bf         1   UNL       h32        33     0.12602        1.0080 ; qtot   -0.927
        34           h33bf         1   UNL       h33        34     0.20439        1.0080 ; qtot   -0.723
        35           h34bf         1   UNL       h34        35     0.20730        1.0080 ; qtot   -0.516
        36           h35bf         1   UNL       h35        36     0.04880        1.0080 ; qtot   -0.467
        37           h36bf         1   UNL       h36        37     0.04880        1.0080 ; qtot   -0.418
        38           h37bf         1   UNL       h37        38     0.04880        1.0080 ; qtot   -0.369
        39           h38bf         1   UNL       h38        39     0.03160        1.0080 ; qtot   -0.338
        40           h39bf         1   UNL       h39        40     0.03158        1.0080 ; qtot   -0.306
        41           h40bf         1   UNL       h40        41     0.02791        1.0080 ; qtot   -0.278
        42           h41bf         1   UNL       h41        42     0.02379        1.0080 ; qtot   -0.254
        43           h42bf         1   UNL       h42        43     0.12699        1.0080 ; qtot   -0.127
        44           h43bf         1   UNL       h43        44     0.12739        1.0080 ; qtot   -0.000

[ bonds ]
;       ai        aj funct               r               k
         1         2     1        0.139944   270306.421094
         1        22     1        0.140147   268693.369580
         1        28     1        0.101188   415350.996826
         2         3     1        0.142465   249637.655176
         2         7     1        0.138718   324224.605566
         3         4     1        0.138628   330545.857324
         3        29     1        0.108420   321509.091504
         4         5     1        0.143443   237124.931250
         4         8     1        0.148398   213063.534814
         5         6     1        0.143386   223579.461084
         5        21     1        0.136378   268382.250977
         6         7     1        0.141521   284459.010498
         6        18     1        0.136675   270922.835840
         7        30     1        0.108434   324306.120020
         8         9     1        0.142023   258564.534814
         8        13     1        0.140177   290488.705078
         9        10     1        0.138890   334507.684473
         9        31     1        0.108507   320582.503027
        10        11     1        0.140748   301486.669824
        10        32     1        0.108659   317447.771777
        11        12     1        0.142620   240876.690137
        11        14     1        0.143732   250154.756104
        12        13     1        0.139784   309529.914404
        12        16     1        0.138337   262427.661035
        13        33     1        0.108455   321154.636426
        14        15     1        0.137637   378975.121045
        14        34     1        0.108169   334460.823877
        15        16     1        0.138674   275419.154687
        15        35     1        0.108218   333100.385449
        16        17     1        0.145037   228862.935791
        17        36     1        0.109354   299824.280615
        17        37     1        0.109354   299824.280615
        17        38     1        0.109354   299824.280615
        18        19     1        0.131846   380187.291016
        19        20     1        0.142216   238192.535645
        19        39     1        0.108836   315483.789307
        20        21     1        0.131881   374103.202393
        20        40     1        0.108820   315940.137451
        22        23     1        0.140977   267021.991309
        22        27     1        0.140466   285811.787793
        23        24     1        0.133567   331214.010254
        23        41     1        0.108791   315048.075146
        24        25     1        0.134007   313452.337793
        25        26     1        0.139831   292729.790723
        25        42     1        0.108786   316159.271387
        26        27     1        0.139402   325769.958203
        26        43     1        0.108569   322389.738721
        27        44     1        0.108555   321219.756055

[ angles ]
;       ai        aj        ak funct           theta             cth
         1         2         3     1      119.169899      551.253109
         1         2         7     1      121.372475      487.030120
         1        22        23     1      121.036766      594.866406
         1        22        27     1      121.543396      548.060715
         2         1        22     1      127.108719      414.313807
         2         1        28     1      115.065018      471.388385
         2         3         4     1      122.471535      717.463109
         2         3        29     1      118.418518      449.059247
         2         7         6     1      120.324669      539.392398
         2         7        30     1      121.910812      424.030741
         3         2         7     1      119.178879      643.903848
         3         4         5     1      118.274673      534.012432
         3         4         8     1      119.145592      472.282120
         4         3        29     1      118.685989      415.785511
         4         5         6     1      118.941978      697.082261
         4         5        21     1      120.418312      431.095519
         4         8         9     1      119.991798      509.193458
         4         8        13     1      120.170876      423.701025
         5         4         8     1      122.735001      444.446511
         5         6         7     1      120.564919      663.113500
         5         6        18     1      121.322975      705.924740
         5        21        20     1      117.611557      602.010986
         6         5        21     1      120.208412      782.715531
         6         7        30     1      117.843239      439.647833
         6        18        19     1      116.661819      559.934704
         7         6        18     1      118.281189      431.307987
         8         9        10     1      121.801224      641.863816
         8         9        31     1      118.687279      420.254601
         8        13        12     1      118.398575      751.074478
         8        13        33     1      120.057411      403.248833
         9         8        13     1      119.636536      629.940923
         9        10        11     1      119.249611      721.006127
         9        10        32     1      120.280472      430.417668
        10         9        31     1      119.736038      414.498728
        10        11        12     1      118.372032      712.683903
        10        11        14     1      134.867035      476.020082
        11        10        32     1      120.565613      437.227138
        11        12        13     1      122.437134      653.014148
        11        12        16     1      107.846840      167.360000
        11        14        15     1      106.844933      436.901987
        11        14        34     1      127.302994      394.236308
        12        11        14     1      106.661888      331.741160
        12        13        33     1      121.695938      415.416116
        12        16        15     1      108.453735      401.502669
        12        16        17     1      125.119263      518.958401
        13        12        16     1      129.874054      438.808396
        14        15        16     1      110.138916      213.458281
        14        15        35     1      129.977615      347.479457
        15        14        34     1      125.794395      397.722794
        15        16        17     1      126.406151      427.630292
        16        15        35     1      120.093422      439.489056
        16        17        36     1      110.346970      460.989003
        16        17        37     1      110.346970      460.989003
        16        17        38     1      110.346970      460.989003
        18        19        20     1      122.299545      738.442163
        18        19        39     1      117.380966      342.428153
        19        20        21     1      122.256546      732.863901
        19        20        40     1      120.142014      430.475797
        20        19        39     1      120.145851      429.987368
        21        20        40     1      117.339157      362.478902
        22         1        28     1      115.084061      464.275725
        22        23        24     1      123.767456      763.209776
        22        23        41     1      119.827209      411.353609
        22        27        26     1      118.847374      826.808734
        22        27        44     1      120.309448      426.619374
        23        22        27     1      117.314072      639.360286
        23        24        25     1      117.929703      674.444890
        24        23        41     1      116.410622      336.567099
        24        25        26     1      122.874008      693.448586
        24        25        42     1      116.323196      357.589503
        25        26        27     1      119.071365      747.065534
        25        26        43     1      120.297035      443.773512
        26        25        42     1      120.762512      415.531863
        26        27        44     1      120.892960      423.964089
        27        26        43     1      120.553604      430.846436
        36        17        37     1      108.719864      352.472281
        36        17        38     1      108.719864      352.472281
        37        17        38     1      108.719864      352.472217

[ dihedrals ] ; propers for gromacs 4.5 or higher, use funct 9
;       ai        aj        ak        al funct           phase               k        pn
         1         2         3         4     9        0.000000        0.197418         1
         1         2         3         4     9      180.000000       14.760708         2
         1         2         3         4     9        0.000000        0.138855         3
         1         2         3         4     9      180.000000       -0.400242         4
         1         2         3        29     9        0.000000       -0.139289         1
         1         2         3        29     9      180.000000       13.380669         2
         1         2         3        29     9        0.000000       -0.108187         3
         1         2         3        29     9      180.000000        0.171790         4
         1         2         7         6     9        0.000000        0.156037         1
         1         2         7         6     9      180.000000       19.018750         2
         1         2         7         6     9        0.000000        0.035869         3
         1         2         7         6     9      180.000000       -0.764344         4
         1         2         7        30     9        0.000000       -0.049629         1
         1         2         7        30     9      180.000000       14.740006         2
         1         2         7        30     9        0.000000       -0.094012         3
         1         2         7        30     9      180.000000        0.217231         4
         1        22        23        24     9        0.000000        0.102561         1
         1        22        23        24     9      180.000000       16.261492         2
         1        22        23        24     9        0.000000        0.094157         3
         1        22        23        24     9      180.000000       -0.660667         4
         1        22        23        41     9        0.000000       -0.156312         1
         1        22        23        41     9      180.000000       13.429393         2
         1        22        23        41     9        0.000000       -0.133167         3
         1        22        23        41     9      180.000000        0.200318         4
         1        22        27        26     9        0.000000        0.281618         1
         1        22        27        26     9      180.000000       17.450772         2
         1        22        27        26     9        0.000000        0.129807         3
         1        22        27        26     9      180.000000       -0.295983         4
         1        22        27        44     9        0.000000       -0.086043         1
         1        22        27        44     9      180.000000       14.078755         2
         1        22        27        44     9        0.000000       -0.074234         3
         1        22        27        44     9      180.000000        0.230902         4
         2         1        22        23     9        0.000000        1.243982         1
         2         1        22        23     9      180.000000        2.205623         2
         2         1        22        23     9        0.000000       -0.150810         3
         2         1        22        23     9      180.000000        0.276017         4
         2         1        22        27     9        0.000000       -0.070543         1
         2         1        22        27     9      180.000000        2.795609         2
         2         1        22        27     9        0.000000       -0.327858         3
         2         1        22        27     9      180.000000        0.329804         4
         2         3         4         5     9        0.000000       -0.212552         1
         2         3         4         5     9      180.000000       19.339552         2
         2         3         4         5     9        0.000000       -1.518365         3
         2         3         4         5     9      180.000000       -0.310706         4
         2         3         4         8     9        0.000000        0.338916         1
         2         3         4         8     9      180.000000       19.207477         2
         2         3         4         8     9        0.000000        0.011406         3
         2         3         4         8     9      180.000000       -0.782234         4
         2         7         6         5     9        0.000000       -0.527762         1
         2         7         6         5     9      180.000000       13.612894         2
         2         7         6         5     9        0.000000       -0.920190         3
         2         7         6         5     9      180.000000       -0.177950         4
         2         7         6        18     9        0.000000       -0.313947         1
         2         7         6        18     9      180.000000       13.972121         2
         2         7         6        18     9        0.000000       -0.427857         3
         2         7         6        18     9      180.000000       -0.379864         4
         3         2         1        22     9        0.000000        0.003861         1
         3         2         1        22     9      180.000000        3.365913         2
         3         2         1        22     9        0.000000       -0.253806         3
         3         2         1        22     9      180.000000        0.288104         4
         3         2         1        28     9        0.000000       -0.250763         1
         3         2         1        28     9      180.000000        4.090545         2
         3         2         1        28     9        0.000000       -0.000506         3
         3         2         1        28     9      180.000000        0.064315         4
         3         2         7         6     9        0.000000       -0.156057         1
         3         2         7         6     9      180.000000       17.204764         2
         3         2         7         6     9        0.000000       -1.106619         3
         3         2         7         6     9      180.000000       -0.419106         4
         3         2         7        30     9        0.000000        0.086419         1
         3         2         7        30     9      180.000000       13.244149         2
         3         2         7        30     9        0.000000       -0.347214         3
         3         2         7        30     9      180.000000        0.137569         4
         3         4         5         6     9        0.000000       -0.407538         1
         3         4         5         6     9      180.000000       10.542523         2
         3         4         5         6     9        0.000000       -0.867662         3
         3         4         5         6     9      180.000000        0.040791         4
         3         4         5        21     9        0.000000        0.050014         1
         3         4         5        21     9      180.000000        9.582072         2
         3         4         5        21     9        0.000000       -0.305997         3
         3         4         5        21     9      180.000000       -0.087278         4
         3         4         8         9     9        0.000000       -0.479631         1
         3         4         8         9     9      180.000000        4.596342         2
         3         4         8         9     9        0.000000       -0.037898         3
         3         4         8         9     9      180.000000        0.664984         4
         3         4         8        13     9        0.000000       -0.281079         1
         3         4         8        13     9      180.000000        4.548833         2
         3         4         8        13     9        0.000000        0.184037         3
         3         4         8        13     9      180.000000        0.569056         4
         4         3         2         7     9        0.000000        0.148033         1
         4         3         2         7     9      180.000000       13.897253         2
         4         3         2         7     9        0.000000       -0.748086         3
         4         3         2         7     9      180.000000       -0.245049         4
         4         5         6         7     9        0.000000        0.151865         1
         4         5         6         7     9      180.000000       11.489531         2
         4         5         6         7     9        0.000000       -0.456158         3
         4         5         6         7     9      180.000000       -0.212062         4
         4         5         6        18     9        0.000000       -0.330477         1
         4         5         6        18     9      180.000000       10.070722         2
         4         5         6        18     9        0.000000        0.089420         3
         4         5         6        18     9      180.000000       -0.272537         4
         4         5        21        20     9        0.000000        0.601589         1
         4         5        21        20     9      180.000000       16.401413         2
         4         5        21        20     9        0.000000        0.383470         3
         4         5        21        20     9      180.000000       -0.372567         4
         4         8         9        10     9        0.000000        0.279806         1
         4         8         9        10     9      180.000000       14.116178         2
         4         8         9        10     9        0.000000       -0.110733         3
         4         8         9        10     9      180.000000       -0.148110         4
         4         8         9        31     9        0.000000       -0.010357         1
         4         8         9        31     9      180.000000       12.522141         2
         4         8         9        31     9        0.000000       -0.209991         3
         4         8         9        31     9      180.000000        0.141486         4
         4         8        13        12     9        0.000000        0.136674         1
         4         8        13        12     9      180.000000       16.945797         2
         4         8        13        12     9        0.000000        0.082086         3
         4         8        13        12     9      180.000000       -0.583671         4
         4         8        13        33     9        0.000000       -0.030768         1
         4         8        13        33     9      180.000000       12.702616         2
         4         8        13        33     9        0.000000       -0.105190         3
         4         8        13        33     9      180.000000        0.147513         4
         5         4         3        29     9        0.000000        0.197520         1
         5         4         3        29     9      180.000000       15.644650         2
         5         4         3        29     9        0.000000       -0.327288         3
         5         4         3        29     9      180.000000        0.175226         4
         5         4         8         9     9        0.000000       -0.007630         1
         5         4         8         9     9      180.000000        4.221758         2
         5         4         8         9     9        0.000000       -0.027698         3
         5         4         8         9     9      180.000000        0.767394         4
         5         4         8        13     9        0.000000       -0.418488         1
         5         4         8        13     9      180.000000        4.256819         2
         5         4         8        13     9        0.000000       -0.213207         3
         5         4         8        13     9      180.000000        0.830009         4
         5         6         7        30     9        0.000000       -0.170722         1
         5         6         7        30     9      180.000000       10.545503         2
         5         6         7        30     9        0.000000       -0.262492         3
         5         6         7        30     9      180.000000       -0.003795         4
         5         6        18        19     9        0.000000       -0.107917         1
         5         6        18        19     9      180.000000       16.440885         2
         5         6        18        19     9        0.000000        0.043441         3
         5         6        18        19     9      180.000000       -0.231040         4
         5        21        20        19     9        0.000000        0.103246         1
         5        21        20        19     9      180.000000       25.050131         2
         5        21        20        19     9        0.000000       -0.948796         3
         5        21        20        19     9      180.000000       -0.159022         4
         5        21        20        40     9        0.000000        0.727426         1
         5        21        20        40     9      180.000000       22.903268         2
         5        21        20        40     9        0.000000        0.106513         3
         5        21        20        40     9      180.000000       -0.552430         4
         6         5         4         8     9        0.000000        0.119155         1
         6         5         4         8     9      180.000000       12.677564         2
         6         5         4         8     9        0.000000       -0.023199         3
         6         5         4         8     9      180.000000       -0.468568         4
         6         5        21        20     9        0.000000        0.188121         1
         6         5        21        20     9      180.000000       16.793790         2
         6         5        21        20     9        0.000000       -0.050993         3
         6         5        21        20     9      180.000000       -0.239062         4
         6        18        19        20     9        0.000000       -0.161990         1
         6        18        19        20     9      180.000000       25.805862         2
         6        18        19        20     9        0.000000       -0.989157         3
         6        18        19        20     9      180.000000       -0.201960         4
         6        18        19        39     9        0.000000        0.808512         1
         6        18        19        39     9      180.000000       23.535884         2
         6        18        19        39     9        0.000000        0.064004         3
         6        18        19        39     9      180.000000       -0.475718         4
         7         2         1        22     9        0.000000        0.057972         1
         7         2         1        22     9      180.000000        3.323199         2
         7         2         1        22     9        0.000000       -0.679998         3
         7         2         1        22     9      180.000000        0.328091         4
         7         2         1        28     9        0.000000       -0.390919         1
         7         2         1        28     9      180.000000        4.354171         2
         7         2         1        28     9        0.000000       -0.114735         3
         7         2         1        28     9      180.000000        0.059026         4
         7         2         3        29     9        0.000000       -0.063908         1
         7         2         3        29     9      180.000000       11.849664         2
         7         2         3        29     9        0.000000       -0.418188         3
         7         2         3        29     9      180.000000        0.110040         4
         7         6         5        21     9        0.000000        0.340548         1
         7         6         5        21     9      180.000000       11.179590         2
         7         6         5        21     9        0.000000       -0.065208         3
         7         6         5        21     9      180.000000       -0.244500         4
         7         6        18        19     9        0.000000       -0.023334         1
         7         6        18        19     9      180.000000       18.424194         2
         7         6        18        19     9        0.000000        0.154346         3
         7         6        18        19     9      180.000000       -0.275637         4
         8         4         3        29     9        0.000000        0.009108         1
         8         4         3        29     9      180.000000       14.924332         2
         8         4         3        29     9        0.000000       -0.149141         3
         8         4         3        29     9      180.000000        0.103227         4
         8         4         5        21     9        0.000000       -0.537273         1
         8         4         5        21     9      180.000000       12.390914         2
         8         4         5        21     9        0.000000       -0.149751         3
         8         4         5        21     9      180.000000       -0.482238         4
         8         9        10        11     9        0.000000       -0.118289         1
         8         9        10        11     9      180.000000       21.128616         2
         8         9        10        11     9        0.000000       -1.641640         3
         8         9        10        11     9      180.000000       -0.503143         4
         8         9        10        32     9        0.000000        0.009879         1
         8         9        10        32     9      180.000000       15.243819         2
         8         9        10        32     9        0.000000       -0.469502         3
         8         9        10        32     9      180.000000        0.094909         4
         8        13        12        11     9        0.000000       -0.017252         1
         8        13        12        11     9      180.000000       17.488273         2
         8        13        12        11     9        0.000000       -1.598856         3
         8        13        12        11     9      180.000000       -0.379347         4
         8        13        12        16     9        0.000000        0.196074         1
         8        13        12        16     9      180.000000       15.844593         2
         8        13        12        16     9        0.000000       -0.300946         3
         8        13        12        16     9      180.000000       -0.376237         4
         9         8        13        12     9        0.000000       -0.183449         1
         9         8        13        12     9      180.000000       20.850220         2
         9         8        13        12     9        0.000000       -1.683317         3
         9         8        13        12     9      180.000000       -0.513113         4
         9         8        13        33     9        0.000000        0.060949         1
         9         8        13        33     9      180.000000       13.908898         2
         9         8        13        33     9        0.000000       -0.456522         3
         9         8        13        33     9      180.000000        0.109681         4
         9        10        11        12     9        0.000000       -0.078279         1
         9        10        11        12     9      180.000000       19.312299         2
         9        10        11        12     9        0.000000       -2.075099         3
         9        10        11        12     9      180.000000       -0.384435         4
         9        10        11        14     9        0.000000        0.118318         1
         9        10        11        14     9      180.000000       13.391727         2
         9        10        11        14     9        0.000000       -0.511419         3
         9        10        11        14     9      180.000000       -0.145206         4
        10         9         8        13     9        0.000000       -0.065410         1
        10         9         8        13     9      180.000000       17.441546         2
        10         9         8        13     9        0.000000       -1.329842         3
        10         9         8        13     9      180.000000       -0.337278         4
        10        11        12        13     9        0.000000       -0.133893         1
        10        11        12        13     9      180.000000       10.794701         2
        10        11        12        13     9        0.000000       -1.527214         3
        10        11        12        13     9      180.000000       -0.100381         4
        10        11        12        16     9        0.000000        0.487087         1
        10        11        12        16     9      180.000000       11.126998         2
        10        11        12        16     9        0.000000       -2.247677         3
        10        11        12        16     9      180.000000       -0.106315         4
        10        11        14        15     9        0.000000        0.355092         1
        10        11        14        15     9      180.000000        4.201618         2
        10        11        14        15     9        0.000000       -0.563694         3
        10        11        14        15     9      180.000000        0.008346         4
        10        11        14        34     9        0.000000       -0.623804         1
        10        11        14        34     9      180.000000        4.278390         2
        10        11        14        34     9        0.000000       -0.168310         3
        10        11        14        34     9      180.000000        0.142292         4
        11        10         9        31     9        0.000000        0.095400         1
        11        10         9        31     9      180.000000       16.437461         2
        11        10         9        31     9        0.000000       -0.519789         3
        11        10         9        31     9      180.000000       -0.017390         4
        11        12        13        33     9        0.000000        0.110456         1
        11        12        13        33     9      180.000000       12.495681         2
        11        12        13        33     9        0.000000       -0.150763         3
        11        12        13        33     9      180.000000       -0.026669         4
        11        12        16        15     9        0.000000       -0.044930         1
        11        12        16        15     9      180.000000       21.153657         2
        11        12        16        15     9        0.000000       -5.745466         3
        11        12        16        15     9      180.000000       -0.067604         4
        11        12        16        17     9        0.000000        0.115831         1
        11        12        16        17     9      180.000000        2.619975         2
        11        12        16        17     9        0.000000        0.721152         3
        11        12        16        17     9      180.000000        0.210197         4
        11        14        15        16     9        0.000000       -0.260769         1
        11        14        15        16     9      180.000000       31.849324         2
        11        14        15        16     9        0.000000       -6.215833         3
        11        14        15        16     9      180.000000       -0.787799         4
        11        14        15        35     9        0.000000        0.028299         1
        11        14        15        35     9      180.000000       17.079476         2
        11        14        15        35     9        0.000000       -0.319769         3
        11        14        15        35     9      180.000000       -0.381525         4
        12        11        10        32     9        0.000000        0.129794         1
        12        11        10        32     9      180.000000       13.454266         2
        12        11        10        32     9        0.000000       -0.407698         3
        12        11        10        32     9      180.000000       -0.071090         4
        12        11        14        15     9        0.000000       -0.144250         1
        12        11        14        15     9      180.000000       27.856906         2
        12        11        14        15     9        0.000000       -8.906379         3
        12        11        14        15     9      180.000000       -0.172844         4
        12        11        14        34     9        0.000000        0.524513         1
        12        11        14        34     9      180.000000       10.013757         2
        12        11        14        34     9        0.000000        0.306404         3
        12        11        14        34     9      180.000000       -0.273153         4
        12        16        15        14     9        0.000000        0.071987         1
        12        16        15        14     9      180.000000       24.295210         2
        12        16        15        14     9        0.000000       -6.032990         3
        12        16        15        14     9      180.000000       -0.546083         4
        12        16        15        35     9        0.000000        1.179453         1
        12        16        15        35     9      180.000000        9.792244         2
        12        16        15        35     9        0.000000        0.433460         3
        12        16        15        35     9      180.000000       -0.227068         4
        12        16        17        36     9        0.000000       -0.029670         1
        12        16        17        36     9      180.000000        0.037189         2
        12        16        17        36     9        0.000000        0.648893         3
        12        16        17        36     9      180.000000        0.010602         4
        12        16        17        37     9        0.000000       -0.029670         1
        12        16        17        37     9      180.000000        0.037189         2
        12        16        17        37     9        0.000000        0.648893         3
        12        16        17        37     9      180.000000        0.010602         4
        12        16        17        38     9        0.000000       -0.029670         1
        12        16        17        38     9      180.000000        0.037189         2
        12        16        17        38     9        0.000000        0.648893         3
        12        16        17        38     9      180.000000        0.010602         4
        13         8         9        31     9        0.000000        0.068411         1
        13         8         9        31     9      180.000000       13.347188         2
        13         8         9        31     9        0.000000       -0.612319         3
        13         8         9        31     9      180.000000        0.142637         4
        13        12        11        14     9        0.000000        0.248175         1
        13        12        11        14     9      180.000000        9.818867         2
        13        12        11        14     9        0.000000       -1.629277         3
        13        12        11        14     9      180.000000        0.022165         4
        13        12        16        15     9        0.000000        0.500542         1
        13        12        16        15     9      180.000000        3.128844         2
        13        12        16        15     9        0.000000        0.183652         3
        13        12        16        15     9      180.000000        0.149882         4
        13        12        16        17     9        0.000000       -0.573621         1
        13        12        16        17     9      180.000000        2.163895         2
        13        12        16        17     9        0.000000       -0.138617         3
        13        12        16        17     9      180.000000        0.234159         4
        14        11        10        32     9        0.000000       -0.042377         1
        14        11        10        32     9      180.000000       10.471313         2
        14        11        10        32     9        0.000000        0.025302         3
        14        11        10        32     9      180.000000        0.084200         4
        14        11        12        16     9        0.000000        0.328899         1
        14        11        12        16     9      180.000000       18.442128         2
        14        11        12        16     9        0.000000       -5.909619         3
        14        11        12        16     9      180.000000       -0.307641         4
        14        15        16        17     9        0.000000        0.366988         1
        14        15        16        17     9      180.000000        4.347227         2
        14        15        16        17     9        0.000000        0.693744         3
        14        15        16        17     9      180.000000        0.283870         4
        15        16        17        36     9        0.000000       -0.051100         1
        15        16        17        36     9      180.000000       -0.000828         2
        15        16        17        36     9        0.000000        0.314565         3
        15        16        17        36     9      180.000000        0.005469         4
        15        16        17        37     9        0.000000       -0.051100         1
        15        16        17        37     9      180.000000       -0.000828         2
        15        16        17        37     9        0.000000        0.314565         3
        15        16        17        37     9      180.000000        0.005469         4
        15        16        17        38     9        0.000000       -0.051100         1
        15        16        17        38     9      180.000000       -0.000828         2
        15        16        17        38     9        0.000000        0.314565         3
        15        16        17        38     9      180.000000        0.005469         4
        16        12        13        33     9        0.000000        0.216516         1
        16        12        13        33     9      180.000000       11.255693         2
        16        12        13        33     9        0.000000       -0.046908         3
        16        12        13        33     9      180.000000        0.106758         4
        16        15        14        34     9        0.000000       -0.078116         1
        16        15        14        34     9      180.000000       15.996352         2
        16        15        14        34     9        0.000000       -0.292964         3
        16        15        14        34     9      180.000000       -0.324606         4
        17        16        15        35     9        0.000000       -0.501732         1
        17        16        15        35     9      180.000000        1.998448         2
        17        16        15        35     9        0.000000        0.284959         3
        17        16        15        35     9      180.000000       -0.030005         4
        18         6         5        21     9        0.000000        0.159899         1
        18         6         5        21     9      180.000000       11.086216         2
        18         6         5        21     9        0.000000        0.160518         3
        18         6         5        21     9      180.000000       -0.397159         4
        18         6         7        30     9        0.000000        0.016940         1
        18         6         7        30     9      180.000000       11.980063         2
        18         6         7        30     9        0.000000       -0.349904         3
        18         6         7        30     9      180.000000        0.012863         4
        18        19        20        21     9        0.000000       -0.713203         1
        18        19        20        21     9      180.000000       11.742392         2
        18        19        20        21     9        0.000000       -0.552180         3
        18        19        20        21     9      180.000000       -0.521536         4
        18        19        20        40     9        0.000000       -0.199021         1
        18        19        20        40     9      180.000000        9.267618         2
        18        19        20        40     9        0.000000       -0.318099         3
        18        19        20        40     9      180.000000       -0.090080         4
        21        20        19        39     9        0.000000       -0.026031         1
        21        20        19        39     9      180.000000        9.508287         2
        21        20        19        39     9        0.000000       -0.255749         3
        21        20        19        39     9      180.000000       -0.134502         4
        22        23        24        25     9        0.000000        0.251068         1
        22        23        24        25     9      180.000000       22.787166         2
        22        23        24        25     9        0.000000       -0.835060         3
        22        23        24        25     9      180.000000       -0.087725         4
        22        27        26        25     9        0.000000        0.036140         1
        22        27        26        25     9      180.000000       18.146219         2
        22        27        26        25     9        0.000000       -1.807287         3
        22        27        26        25     9      180.000000       -0.389434         4
        22        27        26        43     9        0.000000       -0.023051         1
        22        27        26        43     9      180.000000       14.755600         2
        22        27        26        43     9        0.000000       -0.560625         3
        22        27        26        43     9      180.000000        0.064354         4
        23        22         1        28     9        0.000000       -0.194818         1
        23        22         1        28     9      180.000000        3.183789         2
        23        22         1        28     9        0.000000       -0.245805         3
        23        22         1        28     9      180.000000        0.031758         4
        23        22        27        26     9        0.000000        0.050878         1
        23        22        27        26     9      180.000000       15.893658         2
        23        22        27        26     9        0.000000       -1.016425         3
        23        22        27        26     9      180.000000       -0.220974         4
        23        22        27        44     9        0.000000        0.048614         1
        23        22        27        44     9      180.000000       12.225287         2
        23        22        27        44     9        0.000000       -0.431130         3
        23        22        27        44     9      180.000000        0.162825         4
        23        24        25        26     9        0.000000        0.237257         1
        23        24        25        26     9      180.000000       23.004207         2
        23        24        25        26     9        0.000000       -0.838050         3
        23        24        25        26     9      180.000000       -0.252815         4
        23        24        25        42     9        0.000000        1.200989         1
        23        24        25        42     9      180.000000       20.813059         2
        23        24        25        42     9        0.000000        0.234179         3
        23        24        25        42     9      180.000000       -0.442070         4
        24        23        22        27     9        0.000000        0.002616         1
        24        23        22        27     9      180.000000       13.849416         2
        24        23        22        27     9        0.000000       -0.378988         3
        24        23        22        27     9      180.000000       -0.146045         4
        24        25        26        27     9        0.000000       -0.122026         1
        24        25        26        27     9      180.000000       18.317188         2
        24        25        26        27     9        0.000000       -1.016253         3
        24        25        26        27     9      180.000000       -0.482448         4
        24        25        26        43     9        0.000000       -0.051742         1
        24        25        26        43     9      180.000000       13.882337         2
        24        25        26        43     9        0.000000       -0.374823         3
        24        25        26        43     9      180.000000       -0.018798         4
        25        24        23        41     9        0.000000        1.142727         1
        25        24        23        41     9      180.000000       21.066419         2
        25        24        23        41     9        0.000000        0.215091         3
        25        24        23        41     9      180.000000       -0.212036         4
        25        26        27        44     9        0.000000        0.079154         1
        25        26        27        44     9      180.000000       14.041418         2
        25        26        27        44     9        0.000000       -0.595217         3
        25        26        27        44     9      180.000000        0.183081         4
        27        22         1        28     9        0.000000       -0.089538         1
        27        22         1        28     9      180.000000        3.481336         2
        27        22         1        28     9        0.000000        0.014069         3
        27        22         1        28     9      180.000000        0.060956         4
        27        22        23        41     9        0.000000       -0.053064         1
        27        22        23        41     9      180.000000       12.044129         2
        27        22        23        41     9        0.000000       -0.277053         3
        27        22        23        41     9      180.000000        0.154647         4
        27        26        25        42     9        0.000000        0.118219         1
        27        26        25        42     9      180.000000       14.168645         2
        27        26        25        42     9        0.000000       -0.563499         3
        27        26        25        42     9      180.000000        0.085443         4
        31         9        10        32     9        0.000000       -0.056311         1
        31         9        10        32     9      180.000000       12.658448         2
        31         9        10        32     9        0.000000       -0.675856         3
        31         9        10        32     9      180.000000        0.271777         4
        34        14        15        35     9        0.000000        0.003503         1
        34        14        15        35     9      180.000000       10.860043         2
        34        14        15        35     9        0.000000       -0.481074         3
        34        14        15        35     9      180.000000        0.121267         4
        39        19        20        40     9        0.000000       -0.431714         1
        39        19        20        40     9      180.000000        6.869068         2
        39        19        20        40     9        0.000000       -0.569257         3
        39        19        20        40     9      180.000000        0.186659         4
        42        25        26        43     9        0.000000       -0.045325         1
        42        25        26        43     9      180.000000       11.549122         2
        42        25        26        43     9        0.000000       -0.667404         3
        42        25        26        43     9      180.000000        0.261802         4
        43        26        27        44     9        0.000000       -0.225426         1
        43        26        27        44     9      180.000000       12.075442         2
        43        26        27        44     9        0.000000       -0.596126         3
        43        26        27        44     9      180.000000        0.318621         4

[ dihedrals ] ; impropers
;       ai        aj        ak        al funct           phase               k        pn
        19        18        20        39     4      180.000000        4.162411         2
        19        20        39        18     4      180.000000        4.162411         2
        19        39        18        20     4      180.000000        4.162411         2
        20        19        21        40     4      180.000000        4.409855         2
        20        21        40        19     4      180.000000        4.409855         2
        20        40        19        21     4      180.000000        4.409855         2
        23        22        24        41     4      180.000000        3.591829         2
        23        24        41        22     4      180.000000        3.591829         2
        23        41        22        24     4      180.000000        3.591829         2
        25        24        26        42     4      180.000000        3.237143         2
        25        26        42        24     4      180.000000        3.237143         2
        25        42        24        26     4      180.000000        3.237143         2

[ pairs ]
;       ai        aj funct
         1         4     1
         1         6     1
         1        24     1
         1        26     1
         1        29     1
         1        30     1
         1        41     1
         1        44     1
         2         5     1
         2         8     1
         2        18     1
         2        23     1
         2        27     1
         3         6     1
         3         9     1
         3        13     1
         3        21     1
         3        22     1
         3        28     1
         3        30     1
         4         7     1
         4        10     1
         4        12     1
         4        18     1
         4        20     1
         4        31     1
         4        33     1
         5         9     1
         5        13     1
         5        19     1
         5        29     1
         5        30     1
         5        40     1
         6         8     1
         6        20     1
         6        39     1
         7        19     1
         7        21     1
         7        22     1
         7        28     1
         7        29     1
         8        11     1
         8        16     1
         8        21     1
         8        29     1
         8        32     1
         9        12     1
         9        14     1
         9        33     1
        10        13     1
        10        15     1
        10        16     1
        10        34     1
        11        17     1
        11        31     1
        11        33     1
        11        35     1
        12        32     1
        12        34     1
        12        35     1
        12        36     1
        12        37     1
        12        38     1
        13        14     1
        13        15     1
        13        17     1
        13        31     1
        14        17     1
        14        32     1
        15        36     1
        15        37     1
        15        38     1
        16        33     1
        16        34     1
        17        35     1
        18        21     1
        18        30     1
        18        40     1
        21        39     1
        22        25     1
        22        43     1
        23        26     1
        23        28     1
        23        42     1
        23        44     1
        24        27     1
        24        43     1
        25        41     1
        25        44     1
        27        28     1
        27        41     1
        27        42     1
        31        32     1
        34        35     1
        39        40     1
        42        43     1
        43        44     1
