; ITP file created by ByteFF-ML, 2026-02-21 07:42:51.439830

[ atomtypes ]
;name           bonded.type        at.num        mass        charge   ptype           sigma         epsilon
 n0bf                                   7      0.0000       0.00000       A     3.38456e-01     3.92772e-01
 n1bf                                   7      0.0000       0.00000       A     3.38246e-01     3.93082e-01
 c2bf                                   6      0.0000       0.00000       A     3.31514e-01     4.13144e-01
 c3bf                                   6      0.0000       0.00000       A     3.31562e-01     4.13392e-01
 c4bf                                   6      0.0000       0.00000       A     3.31581e-01     4.11588e-01
 c5bf                                   6      0.0000       0.00000       A     3.31387e-01     4.12836e-01
 c6bf                                   6      0.0000       0.00000       A     3.31696e-01     4.13506e-01
 c7bf                                   6      0.0000       0.00000       A     3.31508e-01     4.11459e-01
 c8bf                                   6      0.0000       0.00000       A     3.31588e-01     4.14303e-01
 c9bf                                   6      0.0000       0.00000       A     3.31169e-01     4.10704e-01
 c10bf                                  6      0.0000       0.00000       A     3.31420e-01     4.09858e-01
 n11bf                                  7      0.0000       0.00000       A     3.28041e-01     6.52350e-01
 c12bf                                  6      0.0000       0.00000       A     3.31417e-01     4.13037e-01
 c13bf                                  6      0.0000       0.00000       A     3.31516e-01     4.13372e-01
 c14bf                                  6      0.0000       0.00000       A     3.31301e-01     4.13151e-01
 c15bf                                  6      0.0000       0.00000       A     3.31536e-01     4.12022e-01
 c16bf                                  6      0.0000       0.00000       A     3.31421e-01     4.12921e-01
 c17bf                                  6      0.0000       0.00000       A     3.31466e-01     4.13157e-01
 c18bf                                  6      0.0000       0.00000       A     3.31464e-01     4.12298e-01
 n19bf                                  7      0.0000       0.00000       A     3.20674e-01     8.54162e-01
 c20bf                                  6      0.0000       0.00000       A     3.39830e-01     4.50430e-01
 c21bf                                  6      0.0000       0.00000       A     3.31373e-01     4.11250e-01
 c22bf                                  6      0.0000       0.00000       A     3.31453e-01     4.13813e-01
 c23bf                                  6      0.0000       0.00000       A     3.31454e-01     4.12918e-01
 c24bf                                  6      0.0000       0.00000       A     3.31555e-01     4.12511e-01
 c25bf                                  6      0.0000       0.00000       A     3.31397e-01     4.12798e-01
 c26bf                                  6      0.0000       0.00000       A     3.31598e-01     4.14850e-01
 c27bf                                  6      0.0000       0.00000       A     3.48115e-01     6.73453e-01
 n28bf                                  7      0.0000       0.00000       A     3.27371e-01     4.59093e-01
 h29bf                                  1      0.0000       0.00000       A     2.53506e-01     6.72855e-02
 h30bf                                  1      0.0000       0.00000       A     2.53506e-01     6.72855e-02
 h31bf                                  1      0.0000       0.00000       A     2.62399e-01     6.76733e-02
 h32bf                                  1      0.0000       0.00000       A     2.62381e-01     6.75967e-02
 h33bf                                  1      0.0000       0.00000       A     1.10937e-01     3.99464e-02
 h34bf                                  1      0.0000       0.00000       A     2.62523e-01     6.73238e-02
 h35bf                                  1      0.0000       0.00000       A     2.62498e-01     6.69232e-02
 h36bf                                  1      0.0000       0.00000       A     2.62405e-01     6.76334e-02
 h37bf                                  1      0.0000       0.00000       A     2.62695e-01     6.74962e-02
 h38bf                                  1      0.0000       0.00000       A     2.53862e-01     6.73015e-02
 h39bf                                  1      0.0000       0.00000       A     2.41969e-01     8.74279e-02
 h40bf                                  1      0.0000       0.00000       A     2.41969e-01     8.74279e-02
 h41bf                                  1      0.0000       0.00000       A     2.41969e-01     8.74279e-02
 h42bf                                  1      0.0000       0.00000       A     2.62542e-01     6.75903e-02
 h43bf                                  1      0.0000       0.00000       A     2.62480e-01     6.73318e-02
 h44bf                                  1      0.0000       0.00000       A     2.62500e-01     6.74866e-02
 h45bf                                  1      0.0000       0.00000       A     2.62491e-01     6.73094e-02

[ moleculetype ]
;name             nrexcl
 24                    3

[ atoms ]
;       nr            type      resi   res      atom      cgnr      charge          mass ; qtot
         1            n0bf         1   UNL        n0         1    -0.62285       14.0070 ; qtot   -0.623
         2            n1bf         1   UNL        n1         2    -0.62228       14.0070 ; qtot   -1.245
         3            c2bf         1   UNL        c2         3     0.29317       12.0110 ; qtot   -0.952
         4            c3bf         1   UNL        c3         4     0.29405       12.0110 ; qtot   -0.658
         5            c4bf         1   UNL        c4         5     0.21965       12.0110 ; qtot   -0.438
         6            c5bf         1   UNL        c5         6     0.25847       12.0110 ; qtot   -0.180
         7            c6bf         1   UNL        c6         7    -0.14164       12.0110 ; qtot   -0.321
         8            c7bf         1   UNL        c7         8     0.30973       12.0110 ; qtot   -0.012
         9            c8bf         1   UNL        c8         9    -0.13120       12.0110 ; qtot   -0.143
        10            c9bf         1   UNL        c9        10     0.02972       12.0110 ; qtot   -0.113
        11           c10bf         1   UNL       c10        11    -0.02826       12.0110 ; qtot   -0.141
        12           n11bf         1   UNL       n11        12    -0.96846       14.0070 ; qtot   -1.110
        13           c12bf         1   UNL       c12        13    -0.11542       12.0110 ; qtot   -1.225
        14           c13bf         1   UNL       c13        14    -0.07162       12.0110 ; qtot   -1.297
        15           c14bf         1   UNL       c14        15    -0.10478       12.0110 ; qtot   -1.402
        16           c15bf         1   UNL       c15        16    -0.04872       12.0110 ; qtot   -1.450
        17           c16bf         1   UNL       c16        17    -0.09246       12.0110 ; qtot   -1.543
        18           c17bf         1   UNL       c17        18    -0.24093       12.0110 ; qtot   -1.784
        19           c18bf         1   UNL       c18        19    -0.14808       12.0110 ; qtot   -1.932
        20           n19bf         1   UNL       n19        20    -0.10934       14.0070 ; qtot   -2.041
        21           c20bf         1   UNL       c20        21     0.06426       12.0110 ; qtot   -1.977
        22           c21bf         1   UNL       c21        22     0.35089       12.0110 ; qtot   -1.626
        23           c22bf         1   UNL       c22        23    -0.17001       12.0110 ; qtot   -1.796
        24           c23bf         1   UNL       c23        24    -0.05633       12.0110 ; qtot   -1.852
        25           c24bf         1   UNL       c24        25    -0.14725       12.0110 ; qtot   -2.000
        26           c25bf         1   UNL       c25        26    -0.04038       12.0110 ; qtot   -2.040
        27           c26bf         1   UNL       c26        27    -0.08210       12.0110 ; qtot   -2.122
        28           c27bf         1   UNL       c27        28     0.32676       12.0110 ; qtot   -1.795
        29           n28bf         1   UNL       n28        29    -0.46215       14.0070 ; qtot   -2.258
        30           h29bf         1   UNL       h29        30     0.03158        1.0080 ; qtot   -2.226
        31           h30bf         1   UNL       h30        31     0.03160        1.0080 ; qtot   -2.194
        32           h31bf         1   UNL       h31        32     0.14328        1.0080 ; qtot   -2.051
        33           h32bf         1   UNL       h32        33     0.12730        1.0080 ; qtot   -1.924
        34           h33bf         1   UNL       h33        34     0.49609        1.0080 ; qtot   -1.428
        35           h34bf         1   UNL       h34        35     0.12044        1.0080 ; qtot   -1.307
        36           h35bf         1   UNL       h35        36     0.11787        1.0080 ; qtot   -1.189
        37           h36bf         1   UNL       h36        37     0.12602        1.0080 ; qtot   -1.063
        38           h37bf         1   UNL       h37        38     0.20439        1.0080 ; qtot   -0.859
        39           h38bf         1   UNL       h38        39     0.20730        1.0080 ; qtot   -0.652
        40           h39bf         1   UNL       h39        40     0.04880        1.0080 ; qtot   -0.603
        41           h40bf         1   UNL       h40        41     0.04880        1.0080 ; qtot   -0.554
        42           h41bf         1   UNL       h41        42     0.04880        1.0080 ; qtot   -0.505
        43           h42bf         1   UNL       h42        43     0.12902        1.0080 ; qtot   -0.376
        44           h43bf         1   UNL       h43        44     0.12141        1.0080 ; qtot   -0.255
        45           h44bf         1   UNL       h44        45     0.12892        1.0080 ; qtot   -0.126
        46           h45bf         1   UNL       h45        46     0.12594        1.0080 ; qtot   -0.000

[ bonds ]
;       ai        aj funct               r               k
         1         4     1        0.131846   380187.291016
         1         6     1        0.136675   270922.861377
         2         3     1        0.131881   374103.176855
         2         5     1        0.136378   268382.225439
         3         4     1        0.142216   238192.510107
         3        30     1        0.108820   315940.162988
         4        31     1        0.108836   315483.763770
         5         6     1        0.143386   223579.435547
         5        10     1        0.143443   237124.931250
         6         7     1        0.141521   284458.984961
         7         8     1        0.138619   326165.323730
         7        32     1        0.108434   324306.120020
         8         9     1        0.142339   251562.336035
         8        12     1        0.140466   262295.710791
         9        10     1        0.138628   330545.857324
         9        33     1        0.108420   321509.091504
        10        11     1        0.148398   213063.522046
        11        13     1        0.142023   258564.560352
        11        15     1        0.140177   290488.679541
        12        22     1        0.138942   284146.666113
        12        34     1        0.101271   413181.032031
        13        14     1        0.138890   334507.684473
        13        35     1        0.108507   320582.503027
        14        17     1        0.140748   301486.669824
        14        36     1        0.108659   317447.771777
        15        16     1        0.139784   309529.888867
        15        37     1        0.108455   321154.636426
        16        17     1        0.142620   240876.639063
        16        20     1        0.138337   262427.661035
        17        18     1        0.143732   250154.730566
        18        19     1        0.137637   378975.121045
        18        38     1        0.108169   334460.823877
        19        20     1        0.138674   275419.129150
        19        39     1        0.108218   333100.385449
        20        21     1        0.145037   228862.935791
        21        40     1        0.109354   299824.280615
        21        41     1        0.109354   299824.280615
        21        42     1        0.109354   299824.280615
        22        23     1        0.140844   276145.072559
        22        27     1        0.142103   252060.922559
        23        24     1        0.139428   321836.017578
        23        43     1        0.108407   324188.623779
        24        25     1        0.140036   301925.039844
        24        44     1        0.108595   321109.180371
        25        26     1        0.139246   318054.303662
        25        45     1        0.108498   324707.256934
        26        27     1        0.140711   292860.234277
        26        46     1        0.108497   324280.991504
        27        28     1        0.143189   266394.340234
        28        29     1        0.116654  1091316.622070

[ angles ]
;       ai        aj        ak funct           theta             cth
         1         4         3     1      122.299545      738.442227
         1         4        31     1      117.380966      342.428057
         1         6         5     1      121.322975      705.924740
         1         6         7     1      118.281189      431.308051
         2         3         4     1      122.256546      732.863901
         2         3        30     1      117.339157      362.478934
         2         5         6     1      120.208412      782.715531
         2         5        10     1      120.418312      431.095455
         3         2         5     1      117.611557      602.011178
         3         4        31     1      120.145851      429.987304
         4         1         6     1      116.661819      559.934704
         4         3        30     1      120.142014      430.475797
         5         6         7     1      120.564919      663.113500
         5        10         9     1      118.274681      534.012527
         5        10        11     1      122.735001      444.446511
         6         5        10     1      118.941978      697.082261
         6         7         8     1      120.284668      535.945974
         6         7        32     1      117.843239      439.647833
         7         8         9     1      119.336975      643.556352
         7         8        12     1      121.179947      484.951431
         8         7        32     1      121.908798      423.537843
         8         9        10     1      122.424889      713.139293
         8         9        33     1      118.432152      447.344717
         8        12        22     1      126.962425      419.421484
         8        12        34     1      115.124062      455.787605
         9         8        12     1      119.115921      537.663791
         9        10        11     1      119.145592      472.282184
        10         9        33     1      118.685989      415.785479
        10        11        13     1      119.991798      509.193426
        10        11        15     1      120.170876      423.701025
        11        13        14     1      121.801224      641.863880
        11        13        35     1      118.687279      420.254601
        11        15        16     1      118.398575      751.074541
        11        15        37     1      120.057411      403.248801
        12        22        23     1      121.830528      526.767905
        12        22        27     1      119.972427      526.810967
        13        11        15     1      119.636536      629.940923
        13        14        17     1      119.249611      721.006127
        13        14        36     1      120.280472      430.417668
        14        13        35     1      119.736038      414.498696
        14        17        16     1      118.372032      712.683903
        14        17        18     1      134.867035      476.020082
        15        16        17     1      122.437134      653.014148
        15        16        20     1      129.874054      438.808396
        16        15        37     1      121.695938      415.416116
        16        17        18     1      106.661888      331.741160
        16        20        19     1      108.453735      401.502669
        16        20        21     1      125.119263      518.958401
        17        14        36     1      120.565613      437.227138
        17        16        20     1      107.846840      167.360000
        17        18        19     1      106.844933      436.901987
        17        18        38     1      127.302994      394.236308
        18        19        20     1      110.138916      213.458281
        18        19        39     1      129.977615      347.479457
        19        18        38     1      125.794395      397.722794
        19        20        21     1      126.406151      427.630292
        20        19        39     1      120.093422      439.489056
        20        21        40     1      110.346970      460.989003
        20        21        41     1      110.346970      460.989003
        20        21        42     1      110.346970      460.989003
        22        12        34     1      115.000961      456.992957
        22        23        24     1      120.730591      762.392014
        22        23        43     1      119.248131      438.845201
        22        27        26     1      120.629135      750.101833
        22        27        28     1      119.857422      517.485197
        23        22        27     1      117.998192      587.777368
        23        24        25     1      120.978516      705.927294
        23        24        44     1      119.162086      426.954453
        24        23        43     1      120.042908      419.617641
        24        25        26     1      119.237953      712.635829
        24        25        45     1      120.594101      429.338246
        25        24        44     1      119.955002      426.068539
        25        26        27     1      120.494370      624.750314
        25        26        46     1      120.829201      417.351191
        26        25        45     1      120.215561      432.305020
        26        27        28     1      119.237709      486.826429
        27        26        46     1      118.689270      398.960386
        27        28        29     1      177.133667      167.360000
        40        21        41     1      108.719864      352.472281
        40        21        42     1      108.719864      352.472281
        41        21        42     1      108.719864      352.472217

[ dihedrals ] ; propers for gromacs 4.5 or higher, use funct 9
;       ai        aj        ak        al funct           phase               k        pn
         1         4         3         2     9        0.000000       -0.713202         1
         1         4         3         2     9      180.000000       11.742391         2
         1         4         3         2     9        0.000000       -0.552181         3
         1         4         3         2     9      180.000000       -0.521535         4
         1         4         3        30     9        0.000000       -0.199021         1
         1         4         3        30     9      180.000000        9.267617         2
         1         4         3        30     9        0.000000       -0.318099         3
         1         4         3        30     9      180.000000       -0.090080         4
         1         6         5         2     9        0.000000        0.159899         1
         1         6         5         2     9      180.000000       11.086216         2
         1         6         5         2     9        0.000000        0.160518         3
         1         6         5         2     9      180.000000       -0.397158         4
         1         6         5        10     9        0.000000       -0.330477         1
         1         6         5        10     9      180.000000       10.070721         2
         1         6         5        10     9        0.000000        0.089420         3
         1         6         5        10     9      180.000000       -0.272537         4
         1         6         7         8     9        0.000000       -0.302071         1
         1         6         7         8     9      180.000000       13.914580         2
         1         6         7         8     9        0.000000       -0.432367         3
         1         6         7         8     9      180.000000       -0.379086         4
         1         6         7        32     9        0.000000        0.016940         1
         1         6         7        32     9      180.000000       11.980066         2
         1         6         7        32     9        0.000000       -0.349904         3
         1         6         7        32     9      180.000000        0.012863         4
         2         3         4        31     9        0.000000       -0.026031         1
         2         3         4        31     9      180.000000        9.508287         2
         2         3         4        31     9        0.000000       -0.255749         3
         2         3         4        31     9      180.000000       -0.134502         4
         2         5         6         7     9        0.000000        0.340548         1
         2         5         6         7     9      180.000000       11.179590         2
         2         5         6         7     9        0.000000       -0.065208         3
         2         5         6         7     9      180.000000       -0.244500         4
         2         5        10         9     9        0.000000        0.050012         1
         2         5        10         9     9      180.000000        9.582073         2
         2         5        10         9     9        0.000000       -0.305996         3
         2         5        10         9     9      180.000000       -0.087278         4
         2         5        10        11     9        0.000000       -0.537273         1
         2         5        10        11     9      180.000000       12.390914         2
         2         5        10        11     9        0.000000       -0.149751         3
         2         5        10        11     9      180.000000       -0.482238         4
         3         2         5         6     9        0.000000        0.188121         1
         3         2         5         6     9      180.000000       16.793790         2
         3         2         5         6     9        0.000000       -0.050993         3
         3         2         5         6     9      180.000000       -0.239062         4
         3         2         5        10     9        0.000000        0.601589         1
         3         2         5        10     9      180.000000       16.401414         2
         3         2         5        10     9        0.000000        0.383470         3
         3         2         5        10     9      180.000000       -0.372568         4
         3         4         1         6     9        0.000000       -0.161990         1
         3         4         1         6     9      180.000000       25.805860         2
         3         4         1         6     9        0.000000       -0.989157         3
         3         4         1         6     9      180.000000       -0.201960         4
         4         1         6         5     9        0.000000       -0.107916         1
         4         1         6         5     9      180.000000       16.440884         2
         4         1         6         5     9        0.000000        0.043441         3
         4         1         6         5     9      180.000000       -0.231040         4
         4         1         6         7     9        0.000000       -0.023334         1
         4         1         6         7     9      180.000000       18.424196         2
         4         1         6         7     9        0.000000        0.154346         3
         4         1         6         7     9      180.000000       -0.275637         4
         4         3         2         5     9        0.000000        0.103245         1
         4         3         2         5     9      180.000000       25.050129         2
         4         3         2         5     9        0.000000       -0.948796         3
         4         3         2         5     9      180.000000       -0.159022         4
         5         2         3        30     9        0.000000        0.727426         1
         5         2         3        30     9      180.000000       22.903272         2
         5         2         3        30     9        0.000000        0.106514         3
         5         2         3        30     9      180.000000       -0.552430         4
         5         6         7         8     9        0.000000       -0.523463         1
         5         6         7         8     9      180.000000       13.620656         2
         5         6         7         8     9        0.000000       -0.952472         3
         5         6         7         8     9      180.000000       -0.183681         4
         5         6         7        32     9        0.000000       -0.170721         1
         5         6         7        32     9      180.000000       10.545501         2
         5         6         7        32     9        0.000000       -0.262492         3
         5         6         7        32     9      180.000000       -0.003794         4
         5        10         9         8     9        0.000000       -0.210271         1
         5        10         9         8     9      180.000000       19.323228         2
         5        10         9         8     9        0.000000       -1.520038         3
         5        10         9         8     9      180.000000       -0.304111         4
         5        10         9        33     9        0.000000        0.197520         1
         5        10         9        33     9      180.000000       15.644651         2
         5        10         9        33     9        0.000000       -0.327288         3
         5        10         9        33     9      180.000000        0.175225         4
         5        10        11        13     9        0.000000       -0.007630         1
         5        10        11        13     9      180.000000        4.221759         2
         5        10        11        13     9        0.000000       -0.027697         3
         5        10        11        13     9      180.000000        0.767395         4
         5        10        11        15     9        0.000000       -0.418487         1
         5        10        11        15     9      180.000000        4.256820         2
         5        10        11        15     9        0.000000       -0.213208         3
         5        10        11        15     9      180.000000        0.830009         4
         6         1         4        31     9        0.000000        0.808512         1
         6         1         4        31     9      180.000000       23.535888         2
         6         1         4        31     9        0.000000        0.064005         3
         6         1         4        31     9      180.000000       -0.475717         4
         6         5        10         9     9        0.000000       -0.407537         1
         6         5        10         9     9      180.000000       10.542522         2
         6         5        10         9     9        0.000000       -0.867662         3
         6         5        10         9     9      180.000000        0.040791         4
         6         5        10        11     9        0.000000        0.119154         1
         6         5        10        11     9      180.000000       12.677563         2
         6         5        10        11     9        0.000000       -0.023199         3
         6         5        10        11     9      180.000000       -0.468567         4
         6         7         8         9     9        0.000000       -0.179120         1
         6         7         8         9     9      180.000000       17.416819         2
         6         7         8         9     9        0.000000       -1.179069         3
         6         7         8         9     9      180.000000       -0.432894         4
         6         7         8        12     9        0.000000        0.172103         1
         6         7         8        12     9      180.000000       19.288747         2
         6         7         8        12     9        0.000000       -0.017630         3
         6         7         8        12     9      180.000000       -0.781613         4
         7         6         5        10     9        0.000000        0.151865         1
         7         6         5        10     9      180.000000       11.489531         2
         7         6         5        10     9        0.000000       -0.456158         3
         7         6         5        10     9      180.000000       -0.212062         4
         7         8         9        10     9        0.000000        0.147550         1
         7         8         9        10     9      180.000000       14.194659         2
         7         8         9        10     9        0.000000       -0.825327         3
         7         8         9        10     9      180.000000       -0.239168         4
         7         8         9        33     9        0.000000       -0.070087         1
         7         8         9        33     9      180.000000       11.920367         2
         7         8         9        33     9        0.000000       -0.432152         3
         7         8         9        33     9      180.000000        0.119155         4
         7         8        12        22     9        0.000000       -0.137320         1
         7         8        12        22     9      180.000000        3.626169         2
         7         8        12        22     9        0.000000       -0.539429         3
         7         8        12        22     9      180.000000        0.210474         4
         7         8        12        34     9        0.000000       -0.492921         1
         7         8        12        34     9      180.000000        3.731690         2
         7         8        12        34     9        0.000000       -0.051102         3
         7         8        12        34     9      180.000000        0.106071         4
         8         9        10        11     9        0.000000        0.344586         1
         8         9        10        11     9      180.000000       19.268116         2
         8         9        10        11     9        0.000000        0.024618         3
         8         9        10        11     9      180.000000       -0.787873         4
         8        12        22        23     9        0.000000       -0.375306         1
         8        12        22        23     9      180.000000        3.581411         2
         8        12        22        23     9        0.000000       -0.442324         3
         8        12        22        23     9      180.000000        0.198259         4
         8        12        22        27     9        0.000000        0.482352         1
         8        12        22        27     9      180.000000        4.059470         2
         8        12        22        27     9        0.000000       -0.108252         3
         8        12        22        27     9      180.000000        0.059653         4
         9         8         7        32     9        0.000000        0.064740         1
         9         8         7        32     9      180.000000       13.373458         2
         9         8         7        32     9        0.000000       -0.356625         3
         9         8         7        32     9      180.000000        0.131264         4
         9         8        12        22     9        0.000000       -0.249384         1
         9         8        12        22     9      180.000000        3.600496         2
         9         8        12        22     9        0.000000       -0.185453         3
         9         8        12        22     9      180.000000        0.199532         4
         9         8        12        34     9        0.000000       -0.458923         1
         9         8        12        34     9      180.000000        3.498871         2
         9         8        12        34     9        0.000000        0.062278         3
         9         8        12        34     9      180.000000        0.114732         4
         9        10        11        13     9        0.000000       -0.479631         1
         9        10        11        13     9      180.000000        4.596342         2
         9        10        11        13     9        0.000000       -0.037898         3
         9        10        11        13     9      180.000000        0.664984         4
         9        10        11        15     9        0.000000       -0.281080         1
         9        10        11        15     9      180.000000        4.548833         2
         9        10        11        15     9        0.000000        0.184037         3
         9        10        11        15     9      180.000000        0.569057         4
        10         9         8        12     9        0.000000        0.188017         1
        10         9         8        12     9      180.000000       15.210793         2
        10         9         8        12     9        0.000000        0.116867         3
        10         9         8        12     9      180.000000       -0.393393         4
        10        11        13        14     9        0.000000        0.279806         1
        10        11        13        14     9      180.000000       14.116178         2
        10        11        13        14     9        0.000000       -0.110733         3
        10        11        13        14     9      180.000000       -0.148109         4
        10        11        13        35     9        0.000000       -0.010357         1
        10        11        13        35     9      180.000000       12.522142         2
        10        11        13        35     9        0.000000       -0.209991         3
        10        11        13        35     9      180.000000        0.141486         4
        10        11        15        16     9        0.000000        0.136673         1
        10        11        15        16     9      180.000000       16.945795         2
        10        11        15        16     9        0.000000        0.082087         3
        10        11        15        16     9      180.000000       -0.583671         4
        10        11        15        37     9        0.000000       -0.030767         1
        10        11        15        37     9      180.000000       12.702617         2
        10        11        15        37     9        0.000000       -0.105191         3
        10        11        15        37     9      180.000000        0.147513         4
        11        10         9        33     9        0.000000        0.009108         1
        11        10         9        33     9      180.000000       14.924331         2
        11        10         9        33     9        0.000000       -0.149141         3
        11        10         9        33     9      180.000000        0.103228         4
        11        13        14        17     9        0.000000       -0.118289         1
        11        13        14        17     9      180.000000       21.128616         2
        11        13        14        17     9        0.000000       -1.641640         3
        11        13        14        17     9      180.000000       -0.503143         4
        11        13        14        36     9        0.000000        0.009880         1
        11        13        14        36     9      180.000000       15.243822         2
        11        13        14        36     9        0.000000       -0.469502         3
        11        13        14        36     9      180.000000        0.094908         4
        11        15        16        17     9        0.000000       -0.017252         1
        11        15        16        17     9      180.000000       17.488271         2
        11        15        16        17     9        0.000000       -1.598856         3
        11        15        16        17     9      180.000000       -0.379347         4
        11        15        16        20     9        0.000000        0.196074         1
        11        15        16        20     9      180.000000       15.844593         2
        11        15        16        20     9        0.000000       -0.300946         3
        11        15        16        20     9      180.000000       -0.376237         4
        12         8         7        32     9        0.000000       -0.062036         1
        12         8         7        32     9      180.000000       15.011034         2
        12         8         7        32     9        0.000000       -0.082735         3
        12         8         7        32     9      180.000000        0.189191         4
        12         8         9        33     9        0.000000       -0.141577         1
        12         8         9        33     9      180.000000       13.699039         2
        12         8         9        33     9        0.000000       -0.062939         3
        12         8         9        33     9      180.000000        0.161632         4
        12        22        23        24     9        0.000000        0.336404         1
        12        22        23        24     9      180.000000       17.815783         2
        12        22        23        24     9        0.000000        0.144136         3
        12        22        23        24     9      180.000000       -0.481585         4
        12        22        23        43     9        0.000000       -0.112327         1
        12        22        23        43     9      180.000000       14.781938         2
        12        22        23        43     9        0.000000       -0.089779         3
        12        22        23        43     9      180.000000        0.090731         4
        12        22        27        26     9        0.000000        0.000284         1
        12        22        27        26     9      180.000000       15.819553         2
        12        22        27        26     9        0.000000        0.009306         3
        12        22        27        26     9      180.000000       -0.390072         4
        12        22        27        28     9        0.000000       -0.367420         1
        12        22        27        28     9      180.000000       15.859209         2
        12        22        27        28     9        0.000000       -0.028801         3
        12        22        27        28     9      180.000000       -0.432280         4
        13        11        15        16     9        0.000000       -0.183448         1
        13        11        15        16     9      180.000000       20.850220         2
        13        11        15        16     9        0.000000       -1.683317         3
        13        11        15        16     9      180.000000       -0.513113         4
        13        11        15        37     9        0.000000        0.060950         1
        13        11        15        37     9      180.000000       13.908898         2
        13        11        15        37     9        0.000000       -0.456522         3
        13        11        15        37     9      180.000000        0.109681         4
        13        14        17        16     9        0.000000       -0.078277         1
        13        14        17        16     9      180.000000       19.312299         2
        13        14        17        16     9        0.000000       -2.075100         3
        13        14        17        16     9      180.000000       -0.384435         4
        13        14        17        18     9        0.000000        0.118318         1
        13        14        17        18     9      180.000000       13.391727         2
        13        14        17        18     9        0.000000       -0.511419         3
        13        14        17        18     9      180.000000       -0.145206         4
        14        13        11        15     9        0.000000       -0.065410         1
        14        13        11        15     9      180.000000       17.441546         2
        14        13        11        15     9        0.000000       -1.329842         3
        14        13        11        15     9      180.000000       -0.337279         4
        14        17        16        15     9        0.000000       -0.133894         1
        14        17        16        15     9      180.000000       10.794700         2
        14        17        16        15     9        0.000000       -1.527213         3
        14        17        16        15     9      180.000000       -0.100381         4
        14        17        16        20     9        0.000000        0.487087         1
        14        17        16        20     9      180.000000       11.126998         2
        14        17        16        20     9        0.000000       -2.247677         3
        14        17        16        20     9      180.000000       -0.106315         4
        14        17        18        19     9        0.000000        0.355092         1
        14        17        18        19     9      180.000000        4.201618         2
        14        17        18        19     9        0.000000       -0.563694         3
        14        17        18        19     9      180.000000        0.008346         4
        14        17        18        38     9        0.000000       -0.623804         1
        14        17        18        38     9      180.000000        4.278390         2
        14        17        18        38     9        0.000000       -0.168310         3
        14        17        18        38     9      180.000000        0.142292         4
        15        11        13        35     9        0.000000        0.068411         1
        15        11        13        35     9      180.000000       13.347190         2
        15        11        13        35     9        0.000000       -0.612319         3
        15        11        13        35     9      180.000000        0.142637         4
        15        16        17        18     9        0.000000        0.248175         1
        15        16        17        18     9      180.000000        9.818866         2
        15        16        17        18     9        0.000000       -1.629278         3
        15        16        17        18     9      180.000000        0.022165         4
        15        16        20        19     9        0.000000        0.500542         1
        15        16        20        19     9      180.000000        3.128844         2
        15        16        20        19     9        0.000000        0.183652         3
        15        16        20        19     9      180.000000        0.149882         4
        15        16        20        21     9        0.000000       -0.573621         1
        15        16        20        21     9      180.000000        2.163895         2
        15        16        20        21     9        0.000000       -0.138617         3
        15        16        20        21     9      180.000000        0.234159         4
        16        17        14        36     9        0.000000        0.129794         1
        16        17        14        36     9      180.000000       13.454264         2
        16        17        14        36     9        0.000000       -0.407698         3
        16        17        14        36     9      180.000000       -0.071090         4
        16        17        18        19     9        0.000000       -0.144250         1
        16        17        18        19     9      180.000000       27.856906         2
        16        17        18        19     9        0.000000       -8.906379         3
        16        17        18        19     9      180.000000       -0.172844         4
        16        17        18        38     9        0.000000        0.524513         1
        16        17        18        38     9      180.000000       10.013757         2
        16        17        18        38     9        0.000000        0.306404         3
        16        17        18        38     9      180.000000       -0.273153         4
        16        20        19        18     9        0.000000        0.071987         1
        16        20        19        18     9      180.000000       24.295210         2
        16        20        19        18     9        0.000000       -6.032990         3
        16        20        19        18     9      180.000000       -0.546083         4
        16        20        19        39     9        0.000000        1.179453         1
        16        20        19        39     9      180.000000        9.792244         2
        16        20        19        39     9        0.000000        0.433460         3
        16        20        19        39     9      180.000000       -0.227068         4
        16        20        21        40     9        0.000000       -0.029670         1
        16        20        21        40     9      180.000000        0.037189         2
        16        20        21        40     9        0.000000        0.648893         3
        16        20        21        40     9      180.000000        0.010602         4
        16        20        21        41     9        0.000000       -0.029670         1
        16        20        21        41     9      180.000000        0.037189         2
        16        20        21        41     9        0.000000        0.648893         3
        16        20        21        41     9      180.000000        0.010602         4
        16        20        21        42     9        0.000000       -0.029670         1
        16        20        21        42     9      180.000000        0.037189         2
        16        20        21        42     9        0.000000        0.648893         3
        16        20        21        42     9      180.000000        0.010602         4
        17        14        13        35     9        0.000000        0.095400         1
        17        14        13        35     9      180.000000       16.437463         2
        17        14        13        35     9        0.000000       -0.519789         3
        17        14        13        35     9      180.000000       -0.017390         4
        17        16        15        37     9        0.000000        0.110456         1
        17        16        15        37     9      180.000000       12.495681         2
        17        16        15        37     9        0.000000       -0.150763         3
        17        16        15        37     9      180.000000       -0.026669         4
        17        16        20        19     9        0.000000       -0.044930         1
        17        16        20        19     9      180.000000       21.153657         2
        17        16        20        19     9        0.000000       -5.745466         3
        17        16        20        19     9      180.000000       -0.067604         4
        17        16        20        21     9        0.000000        0.115831         1
        17        16        20        21     9      180.000000        2.619975         2
        17        16        20        21     9        0.000000        0.721152         3
        17        16        20        21     9      180.000000        0.210197         4
        17        18        19        20     9        0.000000       -0.260769         1
        17        18        19        20     9      180.000000       31.849324         2
        17        18        19        20     9        0.000000       -6.215833         3
        17        18        19        20     9      180.000000       -0.787799         4
        17        18        19        39     9        0.000000        0.028299         1
        17        18        19        39     9      180.000000       17.079476         2
        17        18        19        39     9        0.000000       -0.319769         3
        17        18        19        39     9      180.000000       -0.381525         4
        18        17        14        36     9        0.000000       -0.042378         1
        18        17        14        36     9      180.000000       10.471314         2
        18        17        14        36     9        0.000000        0.025302         3
        18        17        14        36     9      180.000000        0.084200         4
        18        17        16        20     9        0.000000        0.328899         1
        18        17        16        20     9      180.000000       18.442128         2
        18        17        16        20     9        0.000000       -5.909619         3
        18        17        16        20     9      180.000000       -0.307641         4
        18        19        20        21     9        0.000000        0.366988         1
        18        19        20        21     9      180.000000        4.347227         2
        18        19        20        21     9        0.000000        0.693744         3
        18        19        20        21     9      180.000000        0.283870         4
        19        20        21        40     9        0.000000       -0.051100         1
        19        20        21        40     9      180.000000       -0.000828         2
        19        20        21        40     9        0.000000        0.314565         3
        19        20        21        40     9      180.000000        0.005469         4
        19        20        21        41     9        0.000000       -0.051100         1
        19        20        21        41     9      180.000000       -0.000828         2
        19        20        21        41     9        0.000000        0.314565         3
        19        20        21        41     9      180.000000        0.005469         4
        19        20        21        42     9        0.000000       -0.051100         1
        19        20        21        42     9      180.000000       -0.000828         2
        19        20        21        42     9        0.000000        0.314565         3
        19        20        21        42     9      180.000000        0.005469         4
        20        16        15        37     9        0.000000        0.216516         1
        20        16        15        37     9      180.000000       11.255694         2
        20        16        15        37     9        0.000000       -0.046907         3
        20        16        15        37     9      180.000000        0.106758         4
        20        19        18        38     9        0.000000       -0.078116         1
        20        19        18        38     9      180.000000       15.996352         2
        20        19        18        38     9        0.000000       -0.292964         3
        20        19        18        38     9      180.000000       -0.324606         4
        21        20        19        39     9        0.000000       -0.501732         1
        21        20        19        39     9      180.000000        1.998448         2
        21        20        19        39     9        0.000000        0.284959         3
        21        20        19        39     9      180.000000       -0.030005         4
        22        23        24        25     9        0.000000       -0.078050         1
        22        23        24        25     9      180.000000       18.785124         2
        22        23        24        25     9        0.000000       -1.790452         3
        22        23        24        25     9      180.000000       -0.422771         4
        22        23        24        44     9        0.000000        0.086835         1
        22        23        24        44     9      180.000000       14.850997         2
        22        23        24        44     9        0.000000       -0.658081         3
        22        23        24        44     9      180.000000        0.052695         4
        22        27        26        25     9        0.000000       -0.021275         1
        22        27        26        25     9      180.000000       18.098634         2
        22        27        26        25     9        0.000000       -1.729631         3
        22        27        26        25     9      180.000000       -0.399065         4
        22        27        26        46     9        0.000000        0.154593         1
        22        27        26        46     9      180.000000       13.761073         2
        22        27        26        46     9        0.000000       -0.637500         3
        22        27        26        46     9      180.000000        0.066129         4
        22        27        28        29     9        0.000000        0.000000         1
        22        27        28        29     9      180.000000        0.000000         2
        22        27        28        29     9        0.000000        0.000000         3
        22        27        28        29     9      180.000000        0.000000         4
        23        22        12        34     9        0.000000       -1.174355         1
        23        22        12        34     9      180.000000        4.116364         2
        23        22        12        34     9        0.000000       -0.067539         3
        23        22        12        34     9      180.000000       -0.053017         4
        23        22        27        26     9        0.000000       -0.001527         1
        23        22        27        26     9      180.000000       14.324614         2
        23        22        27        26     9        0.000000       -0.878601         3
        23        22        27        26     9      180.000000       -0.249194         4
        23        22        27        28     9        0.000000       -0.167638         1
        23        22        27        28     9      180.000000       13.178112         2
        23        22        27        28     9        0.000000       -0.212631         3
        23        22        27        28     9      180.000000       -0.121965         4
        23        24        25        26     9        0.000000        0.078953         1
        23        24        25        26     9      180.000000       18.050816         2
        23        24        25        26     9        0.000000       -1.568078         3
        23        24        25        26     9      180.000000       -0.388743         4
        23        24        25        45     9        0.000000        0.101885         1
        23        24        25        45     9      180.000000       13.676780         2
        23        24        25        45     9        0.000000       -0.626613         3
        23        24        25        45     9      180.000000        0.119584         4
        24        23        22        27     9        0.000000       -0.072669         1
        24        23        22        27     9      180.000000       16.605293         2
        24        23        22        27     9        0.000000       -0.890491         3
        24        23        22        27     9      180.000000       -0.405196         4
        24        25        26        27     9        0.000000       -0.205742         1
        24        25        26        27     9      180.000000       19.229729         2
        24        25        26        27     9        0.000000       -1.568340         3
        24        25        26        27     9      180.000000       -0.559307         4
        24        25        26        46     9        0.000000       -0.031989         1
        24        25        26        46     9      180.000000       14.847703         2
        24        25        26        46     9        0.000000       -0.675135         3
        24        25        26        46     9      180.000000        0.064920         4
        25        24        23        43     9        0.000000        0.014272         1
        25        24        23        43     9      180.000000       14.838401         2
        25        24        23        43     9        0.000000       -0.656903         3
        25        24        23        43     9      180.000000        0.125260         4
        25        26        27        28     9        0.000000        0.053604         1
        25        26        27        28     9      180.000000       17.381012         2
        25        26        27        28     9        0.000000       -0.092376         3
        25        26        27        28     9      180.000000       -0.365360         4
        26        25        24        44     9        0.000000        0.053077         1
        26        25        24        44     9      180.000000       14.225282         2
        26        25        24        44     9        0.000000       -0.688284         3
        26        25        24        44     9      180.000000        0.086074         4
        26        27        28        29     9        0.000000        0.000000         1
        26        27        28        29     9      180.000000        0.000000         2
        26        27        28        29     9        0.000000        0.000000         3
        26        27        28        29     9      180.000000        0.000000         4
        27        22        12        34     9        0.000000        0.369281         1
        27        22        12        34     9      180.000000        4.779892         2
        27        22        12        34     9        0.000000       -0.170540         3
        27        22        12        34     9      180.000000       -0.059377         4
        27        22        23        43     9        0.000000       -0.092310         1
        27        22        23        43     9      180.000000       13.084531         2
        27        22        23        43     9        0.000000       -0.316056         3
        27        22        23        43     9      180.000000       -0.015089         4
        27        26        25        45     9        0.000000        0.028506         1
        27        26        25        45     9      180.000000       14.825064         2
        27        26        25        45     9        0.000000       -0.484893         3
        27        26        25        45     9      180.000000       -0.033526         4
        28        27        26        46     9        0.000000        0.077491         1
        28        27        26        46     9      180.000000       12.896705         2
        28        27        26        46     9        0.000000       -0.351014         3
        28        27        26        46     9      180.000000        0.259640         4
        30         3         4        31     9        0.000000       -0.431714         1
        30         3         4        31     9      180.000000        6.869070         2
        30         3         4        31     9        0.000000       -0.569257         3
        30         3         4        31     9      180.000000        0.186658         4
        35        13        14        36     9        0.000000       -0.056311         1
        35        13        14        36     9      180.000000       12.658448         2
        35        13        14        36     9        0.000000       -0.675856         3
        35        13        14        36     9      180.000000        0.271777         4
        38        18        19        39     9        0.000000        0.003503         1
        38        18        19        39     9      180.000000       10.860043         2
        38        18        19        39     9        0.000000       -0.481074         3
        38        18        19        39     9      180.000000        0.121267         4
        43        23        24        44     9        0.000000       -0.071186         1
        43        23        24        44     9      180.000000       12.406750         2
        43        23        24        44     9        0.000000       -0.713686         3
        43        23        24        44     9      180.000000        0.284126         4
        44        24        25        45     9        0.000000       -0.023440         1
        44        24        25        45     9      180.000000       11.312886         2
        44        24        25        45     9        0.000000       -0.460342         3
        44        24        25        45     9      180.000000        0.200421         4
        45        25        26        46     9        0.000000       -0.173831         1
        45        25        26        46     9      180.000000       11.761170         2
        45        25        26        46     9        0.000000       -0.658520         3
        45        25        26        46     9      180.000000        0.295839         4

[ dihedrals ] ; impropers
;       ai        aj        ak        al funct           phase               k        pn
         3         2         4        30     4      180.000000        4.409854         2
         3         4        30         2     4      180.000000        4.409854         2
         3        30         2         4     4      180.000000        4.409854         2
         4         1         3        31     4      180.000000        4.162410         2
         4         3        31         1     4      180.000000        4.162410         2
         4        31         1         3     4      180.000000        4.162410         2
        24        23        25        44     4      180.000000        0.602453         2
        24        25        44        23     4      180.000000        0.602453         2
        24        44        23        25     4      180.000000        0.602453         2

[ pairs ]
;       ai        aj funct
         1         2     1
         1         8     1
         1        10     1
         1        30     1
         1        32     1
         2         7     1
         2         9     1
         2        11     1
         2        31     1
         3         6     1
         3        10     1
         4         5     1
         4         7     1
         5         8     1
         5        13     1
         5        15     1
         5        30     1
         5        32     1
         5        33     1
         6         9     1
         6        11     1
         6        12     1
         6        31     1
         7        10     1
         7        22     1
         7        33     1
         7        34     1
         8        11     1
         8        23     1
         8        27     1
         9        13     1
         9        15     1
         9        22     1
         9        32     1
         9        34     1
        10        12     1
        10        14     1
        10        16     1
        10        35     1
        10        37     1
        11        17     1
        11        20     1
        11        33     1
        11        36     1
        12        24     1
        12        26     1
        12        28     1
        12        32     1
        12        33     1
        12        43     1
        13        16     1
        13        18     1
        13        37     1
        14        15     1
        14        19     1
        14        20     1
        14        38     1
        15        18     1
        15        19     1
        15        21     1
        15        35     1
        16        36     1
        16        38     1
        16        39     1
        16        40     1
        16        41     1
        16        42     1
        17        21     1
        17        35     1
        17        37     1
        17        39     1
        18        21     1
        18        36     1
        19        40     1
        19        41     1
        19        42     1
        20        37     1
        20        38     1
        21        39     1
        22        25     1
        22        29     1
        22        44     1
        22        46     1
        23        26     1
        23        28     1
        23        34     1
        23        45     1
        24        27     1
        24        46     1
        25        28     1
        25        43     1
        26        29     1
        26        44     1
        27        34     1
        27        43     1
        27        45     1
        28        46     1
        30        31     1
        35        36     1
        38        39     1
        43        44     1
        44        45     1
        45        46     1
