; ITP file created by ByteFF-ML, 2026-02-21 07:42:40.551238

[ atomtypes ]
;name           bonded.type        at.num        mass        charge   ptype           sigma         epsilon
 c0bf                                   6      0.0000       0.00000       A     3.31696e-01     4.13508e-01
 c1bf                                   6      0.0000       0.00000       A     3.31508e-01     4.11414e-01
 c2bf                                   6      0.0000       0.00000       A     3.31588e-01     4.14304e-01
 c3bf                                   6      0.0000       0.00000       A     3.31169e-01     4.10704e-01
 c4bf                                   6      0.0000       0.00000       A     3.31387e-01     4.12836e-01
 c5bf                                   6      0.0000       0.00000       A     3.31581e-01     4.11588e-01
 n6bf                                   7      0.0000       0.00000       A     3.38246e-01     3.93082e-01
 c7bf                                   6      0.0000       0.00000       A     3.31514e-01     4.13144e-01
 c8bf                                   6      0.0000       0.00000       A     3.31562e-01     4.13392e-01
 n9bf                                   7      0.0000       0.00000       A     3.38456e-01     3.92772e-01
 c10bf                                  6      0.0000       0.00000       A     3.31420e-01     4.09858e-01
 n11bf                                  7      0.0000       0.00000       A     3.27603e-01     6.49693e-01
 c12bf                                  6      0.0000       0.00000       A     3.31417e-01     4.13037e-01
 c13bf                                  6      0.0000       0.00000       A     3.31516e-01     4.13372e-01
 c14bf                                  6      0.0000       0.00000       A     3.31301e-01     4.13151e-01
 c15bf                                  6      0.0000       0.00000       A     3.31536e-01     4.12022e-01
 c16bf                                  6      0.0000       0.00000       A     3.31421e-01     4.12921e-01
 c17bf                                  6      0.0000       0.00000       A     3.31466e-01     4.13157e-01
 c18bf                                  6      0.0000       0.00000       A     3.31464e-01     4.12298e-01
 n19bf                                  7      0.0000       0.00000       A     3.20674e-01     8.54162e-01
 c20bf                                  6      0.0000       0.00000       A     3.39830e-01     4.50430e-01
 c21bf                                  6      0.0000       0.00000       A     3.31372e-01     4.10263e-01
 c22bf                                  6      0.0000       0.00000       A     3.31521e-01     4.11179e-01
 c23bf                                  6      0.0000       0.00000       A     3.31496e-01     4.13789e-01
 c24bf                                  6      0.0000       0.00000       A     3.31501e-01     4.12763e-01
 c25bf                                  6      0.0000       0.00000       A     3.31441e-01     4.12911e-01
 c26bf                                  6      0.0000       0.00000       A     3.31402e-01     4.14198e-01
 c27bf                                  6      0.0000       0.00000       A     3.31413e-01     4.11483e-01
 o28bf                                  8      0.0000       0.00000       A     3.04770e-01     6.10718e-01
 n29bf                                  7      0.0000       0.00000       A     3.36061e-01     3.56452e-01
 h30bf                                  1      0.0000       0.00000       A     2.62399e-01     6.76733e-02
 h31bf                                  1      0.0000       0.00000       A     2.62381e-01     6.75967e-02
 h32bf                                  1      0.0000       0.00000       A     2.53506e-01     6.72855e-02
 h33bf                                  1      0.0000       0.00000       A     2.53506e-01     6.72855e-02
 h34bf                                  1      0.0000       0.00000       A     1.10981e-01     4.03486e-02
 h35bf                                  1      0.0000       0.00000       A     2.62523e-01     6.73238e-02
 h36bf                                  1      0.0000       0.00000       A     2.62498e-01     6.69232e-02
 h37bf                                  1      0.0000       0.00000       A     2.62405e-01     6.76334e-02
 h38bf                                  1      0.0000       0.00000       A     2.62695e-01     6.74962e-02
 h39bf                                  1      0.0000       0.00000       A     2.53862e-01     6.73015e-02
 h40bf                                  1      0.0000       0.00000       A     2.41969e-01     8.74279e-02
 h41bf                                  1      0.0000       0.00000       A     2.41969e-01     8.74279e-02
 h42bf                                  1      0.0000       0.00000       A     2.41969e-01     8.74279e-02
 h43bf                                  1      0.0000       0.00000       A     2.62550e-01     6.70062e-02
 h44bf                                  1      0.0000       0.00000       A     2.62457e-01     6.74531e-02
 h45bf                                  1      0.0000       0.00000       A     2.62480e-01     6.73318e-02
 h46bf                                  1      0.0000       0.00000       A     2.62475e-01     6.73972e-02
 h47bf                                  1      0.0000       0.00000       A     1.10424e-01     4.11499e-02
 h48bf                                  1      0.0000       0.00000       A     1.10424e-01     4.11499e-02

[ moleculetype ]
;name             nrexcl
 26_flip_b             3

[ atoms ]
;       nr            type      resi   res      atom      cgnr      charge          mass ; qtot
         1            c0bf         1   UNL        c0         1    -0.14412       12.0110 ; qtot   -0.144
         2            c1bf         1   UNL        c1         2     0.31237       12.0110 ; qtot    0.168
         3            c2bf         1   UNL        c2         3    -0.13315       12.0110 ; qtot    0.035
         4            c3bf         1   UNL        c3         4     0.02972       12.0110 ; qtot    0.065
         5            c4bf         1   UNL        c4         5     0.25847       12.0110 ; qtot    0.323
         6            c5bf         1   UNL        c5         6     0.21965       12.0110 ; qtot    0.543
         7            n6bf         1   UNL        n6         7    -0.62228       14.0070 ; qtot   -0.079
         8            c7bf         1   UNL        c7         8     0.29317       12.0110 ; qtot    0.214
         9            c8bf         1   UNL        c8         9     0.29405       12.0110 ; qtot    0.508
        10            n9bf         1   UNL        n9        10    -0.62285       14.0070 ; qtot   -0.115
        11           c10bf         1   UNL       c10        11    -0.02826       12.0110 ; qtot   -0.143
        12           n11bf         1   UNL       n11        12    -0.98286       14.0070 ; qtot   -1.126
        13           c12bf         1   UNL       c12        13    -0.11542       12.0110 ; qtot   -1.242
        14           c13bf         1   UNL       c13        14    -0.07162       12.0110 ; qtot   -1.313
        15           c14bf         1   UNL       c14        15    -0.10478       12.0110 ; qtot   -1.418
        16           c15bf         1   UNL       c15        16    -0.04872       12.0110 ; qtot   -1.467
        17           c16bf         1   UNL       c16        17    -0.09246       12.0110 ; qtot   -1.559
        18           c17bf         1   UNL       c17        18    -0.24093       12.0110 ; qtot   -1.800
        19           c18bf         1   UNL       c18        19    -0.14808       12.0110 ; qtot   -1.948
        20           n19bf         1   UNL       n19        20    -0.10934       14.0070 ; qtot   -2.057
        21           c20bf         1   UNL       c20        21     0.06426       12.0110 ; qtot   -1.993
        22           c21bf         1   UNL       c21        22     0.36242       12.0110 ; qtot   -1.631
        23           c22bf         1   UNL       c22        23    -0.23202       12.0110 ; qtot   -1.863
        24           c23bf         1   UNL       c23        24    -0.04793       12.0110 ; qtot   -1.911
        25           c24bf         1   UNL       c24        25    -0.15132       12.0110 ; qtot   -2.062
        26           c25bf         1   UNL       c25        26    -0.06051       12.0110 ; qtot   -2.123
        27           c26bf         1   UNL       c26        27    -0.17869       12.0110 ; qtot   -2.301
        28           c27bf         1   UNL       c27        28     0.60922       12.0110 ; qtot   -1.692
        29           o28bf         1   UNL       o28        29    -0.62107       15.9990 ; qtot   -2.313
        30           n29bf         1   UNL       n29        30    -0.57750       14.0070 ; qtot   -2.891
        31           h30bf         1   UNL       h30        31     0.14328        1.0080 ; qtot   -2.747
        32           h31bf         1   UNL       h31        32     0.12730        1.0080 ; qtot   -2.620
        33           h32bf         1   UNL       h32        33     0.03158        1.0080 ; qtot   -2.588
        34           h33bf         1   UNL       h33        34     0.03160        1.0080 ; qtot   -2.557
        35           h34bf         1   UNL       h34        35     0.51546        1.0080 ; qtot   -2.041
        36           h35bf         1   UNL       h35        36     0.12044        1.0080 ; qtot   -1.921
        37           h36bf         1   UNL       h36        37     0.11787        1.0080 ; qtot   -1.803
        38           h37bf         1   UNL       h37        38     0.12602        1.0080 ; qtot   -1.677
        39           h38bf         1   UNL       h38        39     0.20439        1.0080 ; qtot   -1.473
        40           h39bf         1   UNL       h39        40     0.20730        1.0080 ; qtot   -1.265
        41           h40bf         1   UNL       h40        41     0.04880        1.0080 ; qtot   -1.217
        42           h41bf         1   UNL       h41        42     0.04880        1.0080 ; qtot   -1.168
        43           h42bf         1   UNL       h42        43     0.04880        1.0080 ; qtot   -1.119
        44           h43bf         1   UNL       h43        44     0.12713        1.0080 ; qtot   -0.992
        45           h44bf         1   UNL       h44        45     0.12403        1.0080 ; qtot   -0.868
        46           h45bf         1   UNL       h45        46     0.11656        1.0080 ; qtot   -0.751
        47           h46bf         1   UNL       h46        47     0.13049        1.0080 ; qtot   -0.621
        48           h47bf         1   UNL       h47        48     0.31037        1.0080 ; qtot   -0.310
        49           h48bf         1   UNL       h48        49     0.31036        1.0080 ; qtot   -0.000

[ bonds ]
;       ai        aj funct               r               k
         1         2     1        0.138691   324376.525830
         1         5     1        0.141521   284459.010498
         1        31     1        0.108434   324306.120020
         2         3     1        0.142426   250295.618799
         2        12     1        0.139907   267729.164941
         3         4     1        0.138628   330545.857324
         3        32     1        0.108420   321509.091504
         4         6     1        0.143443   237124.982324
         4        11     1        0.148398   213063.534814
         5         6     1        0.143386   223579.461084
         5        10     1        0.136675   270922.835840
         6         7     1        0.136378   268382.250977
         7         8     1        0.131881   374103.202393
         8         9     1        0.142216   238192.510107
         8        33     1        0.108820   315940.162988
         9        10     1        0.131846   380187.239941
         9        34     1        0.108836   315483.763770
        11        13     1        0.142023   258564.560352
        11        15     1        0.140177   290488.679541
        12        22     1        0.139315   274930.272266
        12        35     1        0.101736   397400.247607
        13        14     1        0.138890   334507.684473
        13        36     1        0.108507   320582.503027
        14        17     1        0.140748   301486.669824
        14        37     1        0.108659   317447.771777
        15        16     1        0.139784   309529.914404
        15        38     1        0.108455   321154.636426
        16        17     1        0.142620   240876.639063
        16        20     1        0.138337   262427.661035
        17        18     1        0.143732   250154.730566
        18        19     1        0.137637   378975.121045
        18        39     1        0.108169   334460.823877
        19        20     1        0.138674   275419.129150
        19        40     1        0.108218   333100.385449
        20        21     1        0.145037   228862.935791
        21        41     1        0.109354   299824.280615
        21        42     1        0.109354   299824.280615
        21        43     1        0.109354   299824.280615
        22        23     1        0.142332   247587.638184
        22        27     1        0.140999   273862.157129
        23        24     1        0.140601   291561.110449
        23        28     1        0.149560   178083.274829
        24        25     1        0.139259   320219.569629
        24        44     1        0.108510   321592.087109
        25        26     1        0.139933   303172.885156
        25        45     1        0.108550   322447.554736
        26        27     1        0.139264   324943.602881
        26        46     1        0.108623   319867.566113
        27        47     1        0.108365   324104.172559
        28        29     1        0.123922   568981.199805
        28        30     1        0.137660   296810.544189
        30        48     1        0.101260   423336.680762
        30        49     1        0.101260   423336.680762

[ angles ]
;       ai        aj        ak funct           theta             cth
         1         2         3     1      119.242516      643.538668
         1         2        12     1      121.375267      493.732334
         1         5         6     1      120.564919      663.113437
         1         5        10     1      118.281189      431.308051
         2         1         5     1      120.307777      539.393675
         2         1        31     1      121.892540      424.264980
         2         3         4     1      122.453468      714.503677
         2         3        32     1      118.424255      447.626360
         2        12        22     1      127.271523      413.407336
         2        12        35     1      116.067383      417.758029
         3         2        12     1      119.308884      534.154769
         3         4         6     1      118.274681      534.012463
         3         4        11     1      119.145592      472.282120
         4         3        32     1      118.685989      415.785479
         4         6         5     1      118.941978      697.082325
         4         6         7     1      120.418312      431.095455
         4        11        13     1      119.991798      509.193426
         4        11        15     1      120.170876      423.701025
         5         1        31     1      117.843239      439.647833
         5         6         7     1      120.208412      782.715594
         5        10         9     1      116.661819      559.934704
         6         4        11     1      122.735001      444.446511
         6         5        10     1      121.322975      705.924740
         6         7         8     1      117.611557      602.010986
         7         8         9     1      122.256546      732.863901
         7         8        33     1      117.339157      362.478934
         8         9        10     1      122.299545      738.442163
         8         9        34     1      120.145851      429.987368
         9         8        33     1      120.142014      430.475797
        10         9        34     1      117.380966      342.428057
        11        13        14     1      121.801224      641.863880
        11        13        36     1      118.687279      420.254569
        11        15        16     1      118.398575      751.074478
        11        15        38     1      120.057411      403.248833
        12        22        23     1      120.407692      579.485085
        12        22        27     1      121.225098      561.825536
        13        11        15     1      119.636536      629.940923
        13        14        17     1      119.249611      721.006127
        13        14        37     1      120.280472      430.417668
        14        13        36     1      119.736038      414.498728
        14        17        16     1      118.372032      712.683903
        14        17        18     1      134.867035      476.020082
        15        16        17     1      122.437134      653.014148
        15        16        20     1      129.874054      438.808396
        16        15        38     1      121.695938      415.416116
        16        17        18     1      106.661888      331.741160
        16        20        19     1      108.453735      401.502669
        16        20        21     1      125.119263      518.958401
        17        14        37     1      120.565613      437.227138
        17        16        20     1      107.846840      167.360000
        17        18        19     1      106.844933      436.901987
        17        18        39     1      127.302994      394.236308
        18        19        20     1      110.138916      213.458281
        18        19        40     1      129.977615      347.479457
        19        18        39     1      125.794395      397.722794
        19        20        21     1      126.406151      427.630292
        20        19        40     1      120.093422      439.489056
        20        21        41     1      110.346970      460.989003
        20        21        42     1      110.346970      460.989003
        20        21        43     1      110.346970      460.989003
        22        12        35     1      114.017418      447.335077
        22        23        24     1      119.213257      767.197715
        22        23        28     1      122.028542      694.346981
        22        27        26     1      121.031349      751.465578
        22        27        47     1      119.183060      436.340937
        23        22        27     1      118.547470      641.175017
        23        24        25     1      121.710648      633.422844
        23        24        44     1      118.682877      388.750139
        23        28        29     1      122.730675      512.196111
        23        28        30     1      116.604752      527.258153
        24        23        28     1      118.990829      561.097154
        24        25        26     1      119.125229      718.720365
        24        25        45     1      120.271439      437.260273
        25        24        44     1      119.723450      419.389755
        25        26        27     1      120.605202      696.732913
        25        26        46     1      120.198891      424.925561
        26        25        45     1      120.581543      438.584531
        26        27        47     1      120.024979      415.401050
        27        26        46     1      119.253502      428.884516
        28        30        48     1      117.299232      448.588087
        28        30        49     1      117.299232      448.588087
        29        28        30     1      120.238014      682.904505
        41        21        42     1      108.719864      352.472281
        41        21        43     1      108.719864      352.472281
        42        21        43     1      108.719864      352.472281
        48        30        49     1      117.099060      317.421417

[ dihedrals ] ; propers for gromacs 4.5 or higher, use funct 9
;       ai        aj        ak        al funct           phase               k        pn
         1         2         3         4     9        0.000000        0.154813         1
         1         2         3         4     9      180.000000       14.144556         2
         1         2         3         4     9        0.000000       -0.806557         3
         1         2         3         4     9      180.000000       -0.247046         4
         1         2         3        32     9        0.000000       -0.057384         1
         1         2         3        32     9      180.000000       11.882405         2
         1         2         3        32     9        0.000000       -0.421844         3
         1         2         3        32     9      180.000000        0.115530         4
         1         2        12        22     9        0.000000       -0.114043         1
         1         2        12        22     9      180.000000        4.034418         2
         1         2        12        22     9        0.000000       -0.393015         3
         1         2        12        22     9      180.000000        0.100609         4
         1         2        12        35     9        0.000000       -0.512694         1
         1         2        12        35     9      180.000000        3.691357         2
         1         2        12        35     9        0.000000       -0.140693         3
         1         2        12        35     9      180.000000        0.074801         4
         1         5         6         4     9        0.000000        0.151864         1
         1         5         6         4     9      180.000000       11.489532         2
         1         5         6         4     9        0.000000       -0.456158         3
         1         5         6         4     9      180.000000       -0.212062         4
         1         5         6         7     9        0.000000        0.340548         1
         1         5         6         7     9      180.000000       11.179590         2
         1         5         6         7     9        0.000000       -0.065208         3
         1         5         6         7     9      180.000000       -0.244500         4
         1         5        10         9     9        0.000000       -0.023334         1
         1         5        10         9     9      180.000000       18.424194         2
         1         5        10         9     9        0.000000        0.154347         3
         1         5        10         9     9      180.000000       -0.275637         4
         2         1         5         6     9        0.000000       -0.528551         1
         2         1         5         6     9      180.000000       13.622457         2
         2         1         5         6     9        0.000000       -0.952750         3
         2         1         5         6     9      180.000000       -0.178781         4
         2         1         5        10     9        0.000000       -0.328804         1
         2         1         5        10     9      180.000000       13.920735         2
         2         1         5        10     9        0.000000       -0.432946         3
         2         1         5        10     9      180.000000       -0.372973         4
         2         3         4         6     9        0.000000       -0.219840         1
         2         3         4         6     9      180.000000       19.342928         2
         2         3         4         6     9        0.000000       -1.532193         3
         2         3         4         6     9      180.000000       -0.315384         4
         2         3         4        11     9        0.000000        0.335017         1
         2         3         4        11     9      180.000000       19.248842         2
         2         3         4        11     9        0.000000        0.017550         3
         2         3         4        11     9      180.000000       -0.789319         4
         2        12        22        23     9        0.000000        0.568416         1
         2        12        22        23     9      180.000000        3.867553         2
         2        12        22        23     9        0.000000        0.053059         3
         2        12        22        23     9      180.000000       -0.026083         4
         2        12        22        27     9        0.000000       -0.047980         1
         2        12        22        27     9      180.000000        3.657943         2
         2        12        22        27     9        0.000000       -0.562153         3
         2        12        22        27     9      180.000000        0.171772         4
         3         2         1         5     9        0.000000       -0.178902         1
         3         2         1         5     9      180.000000       17.298275         2
         3         2         1         5     9        0.000000       -1.149736         3
         3         2         1         5     9      180.000000       -0.426001         4
         3         2         1        31     9        0.000000        0.065924         1
         3         2         1        31     9      180.000000       13.315506         2
         3         2         1        31     9        0.000000       -0.351252         3
         3         2         1        31     9      180.000000        0.136157         4
         3         2        12        22     9        0.000000        0.120218         1
         3         2        12        22     9      180.000000        3.891010         2
         3         2        12        22     9        0.000000        0.073993         3
         3         2        12        22     9      180.000000        0.093405         4
         3         2        12        35     9        0.000000       -0.541919         1
         3         2        12        35     9      180.000000        3.445970         2
         3         2        12        35     9        0.000000        0.024223         3
         3         2        12        35     9      180.000000        0.104866         4
         3         4         6         5     9        0.000000       -0.407537         1
         3         4         6         5     9      180.000000       10.542520         2
         3         4         6         5     9        0.000000       -0.867662         3
         3         4         6         5     9      180.000000        0.040791         4
         3         4         6         7     9        0.000000        0.050013         1
         3         4         6         7     9      180.000000        9.582071         2
         3         4         6         7     9        0.000000       -0.305997         3
         3         4         6         7     9      180.000000       -0.087278         4
         3         4        11        13     9        0.000000       -0.479631         1
         3         4        11        13     9      180.000000        4.596342         2
         3         4        11        13     9        0.000000       -0.037898         3
         3         4        11        13     9      180.000000        0.664984         4
         3         4        11        15     9        0.000000       -0.281079         1
         3         4        11        15     9      180.000000        4.548832         2
         3         4        11        15     9        0.000000        0.184036         3
         3         4        11        15     9      180.000000        0.569057         4
         4         3         2        12     9        0.000000        0.209478         1
         4         3         2        12     9      180.000000       15.677429         2
         4         3         2        12     9        0.000000        0.032988         3
         4         3         2        12     9      180.000000       -0.397478         4
         4         6         5        10     9        0.000000       -0.330478         1
         4         6         5        10     9      180.000000       10.070724         2
         4         6         5        10     9        0.000000        0.089420         3
         4         6         5        10     9      180.000000       -0.272537         4
         4         6         7         8     9        0.000000        0.601589         1
         4         6         7         8     9      180.000000       16.401411         2
         4         6         7         8     9        0.000000        0.383469         3
         4         6         7         8     9      180.000000       -0.372567         4
         4        11        13        14     9        0.000000        0.279806         1
         4        11        13        14     9      180.000000       14.116177         2
         4        11        13        14     9        0.000000       -0.110734         3
         4        11        13        14     9      180.000000       -0.148110         4
         4        11        13        36     9        0.000000       -0.010357         1
         4        11        13        36     9      180.000000       12.522140         2
         4        11        13        36     9        0.000000       -0.209991         3
         4        11        13        36     9      180.000000        0.141486         4
         4        11        15        16     9        0.000000        0.136673         1
         4        11        15        16     9      180.000000       16.945793         2
         4        11        15        16     9        0.000000        0.082086         3
         4        11        15        16     9      180.000000       -0.583671         4
         4        11        15        38     9        0.000000       -0.030767         1
         4        11        15        38     9      180.000000       12.702616         2
         4        11        15        38     9        0.000000       -0.105191         3
         4        11        15        38     9      180.000000        0.147513         4
         5         1         2        12     9        0.000000        0.267074         1
         5         1         2        12     9      180.000000       19.758387         2
         5         1         2        12     9        0.000000       -0.071488         3
         5         1         2        12     9      180.000000       -0.786871         4
         5         6         4        11     9        0.000000        0.119155         1
         5         6         4        11     9      180.000000       12.677563         2
         5         6         4        11     9        0.000000       -0.023199         3
         5         6         4        11     9      180.000000       -0.468567         4
         5         6         7         8     9        0.000000        0.188120         1
         5         6         7         8     9      180.000000       16.793790         2
         5         6         7         8     9        0.000000       -0.050993         3
         5         6         7         8     9      180.000000       -0.239062         4
         5        10         9         8     9        0.000000       -0.161990         1
         5        10         9         8     9      180.000000       25.805864         2
         5        10         9         8     9        0.000000       -0.989158         3
         5        10         9         8     9      180.000000       -0.201960         4
         5        10         9        34     9        0.000000        0.808513         1
         5        10         9        34     9      180.000000       23.535886         2
         5        10         9        34     9        0.000000        0.064004         3
         5        10         9        34     9      180.000000       -0.475717         4
         6         4         3        32     9        0.000000        0.197520         1
         6         4         3        32     9      180.000000       15.644651         2
         6         4         3        32     9        0.000000       -0.327288         3
         6         4         3        32     9      180.000000        0.175225         4
         6         4        11        13     9        0.000000       -0.007630         1
         6         4        11        13     9      180.000000        4.221758         2
         6         4        11        13     9        0.000000       -0.027697         3
         6         4        11        13     9      180.000000        0.767394         4
         6         4        11        15     9        0.000000       -0.418488         1
         6         4        11        15     9      180.000000        4.256820         2
         6         4        11        15     9        0.000000       -0.213207         3
         6         4        11        15     9      180.000000        0.830008         4
         6         5         1        31     9        0.000000       -0.170721         1
         6         5         1        31     9      180.000000       10.545502         2
         6         5         1        31     9        0.000000       -0.262492         3
         6         5         1        31     9      180.000000       -0.003795         4
         6         5        10         9     9        0.000000       -0.107916         1
         6         5        10         9     9      180.000000       16.440884         2
         6         5        10         9     9        0.000000        0.043441         3
         6         5        10         9     9      180.000000       -0.231039         4
         6         7         8         9     9        0.000000        0.103245         1
         6         7         8         9     9      180.000000       25.050131         2
         6         7         8         9     9        0.000000       -0.948796         3
         6         7         8         9     9      180.000000       -0.159021         4
         6         7         8        33     9        0.000000        0.727425         1
         6         7         8        33     9      180.000000       22.903268         2
         6         7         8        33     9        0.000000        0.106514         3
         6         7         8        33     9      180.000000       -0.552430         4
         7         6         4        11     9        0.000000       -0.537272         1
         7         6         4        11     9      180.000000       12.390915         2
         7         6         4        11     9        0.000000       -0.149751         3
         7         6         4        11     9      180.000000       -0.482238         4
         7         6         5        10     9        0.000000        0.159900         1
         7         6         5        10     9      180.000000       11.086216         2
         7         6         5        10     9        0.000000        0.160518         3
         7         6         5        10     9      180.000000       -0.397158         4
         7         8         9        10     9        0.000000       -0.713203         1
         7         8         9        10     9      180.000000       11.742392         2
         7         8         9        10     9        0.000000       -0.552181         3
         7         8         9        10     9      180.000000       -0.521535         4
         7         8         9        34     9        0.000000       -0.026031         1
         7         8         9        34     9      180.000000        9.508286         2
         7         8         9        34     9        0.000000       -0.255749         3
         7         8         9        34     9      180.000000       -0.134502         4
        10         5         1        31     9        0.000000        0.016940         1
        10         5         1        31     9      180.000000       11.980067         2
        10         5         1        31     9        0.000000       -0.349905         3
        10         5         1        31     9      180.000000        0.012863         4
        10         9         8        33     9        0.000000       -0.199022         1
        10         9         8        33     9      180.000000        9.267615         2
        10         9         8        33     9        0.000000       -0.318099         3
        10         9         8        33     9      180.000000       -0.090079         4
        11         4         3        32     9        0.000000        0.009108         1
        11         4         3        32     9      180.000000       14.924329         2
        11         4         3        32     9        0.000000       -0.149141         3
        11         4         3        32     9      180.000000        0.103227         4
        11        13        14        17     9        0.000000       -0.118288         1
        11        13        14        17     9      180.000000       21.128618         2
        11        13        14        17     9        0.000000       -1.641639         3
        11        13        14        17     9      180.000000       -0.503143         4
        11        13        14        37     9        0.000000        0.009880         1
        11        13        14        37     9      180.000000       15.243821         2
        11        13        14        37     9        0.000000       -0.469502         3
        11        13        14        37     9      180.000000        0.094909         4
        11        15        16        17     9        0.000000       -0.017252         1
        11        15        16        17     9      180.000000       17.488271         2
        11        15        16        17     9        0.000000       -1.598856         3
        11        15        16        17     9      180.000000       -0.379347         4
        11        15        16        20     9        0.000000        0.196074         1
        11        15        16        20     9      180.000000       15.844593         2
        11        15        16        20     9        0.000000       -0.300946         3
        11        15        16        20     9      180.000000       -0.376237         4
        12         2         1        31     9        0.000000        0.044907         1
        12         2         1        31     9      180.000000       15.333180         2
        12         2         1        31     9        0.000000       -0.090838         3
        12         2         1        31     9      180.000000        0.193633         4
        12         2         3        32     9        0.000000       -0.013256         1
        12         2         3        32     9      180.000000       14.160196         2
        12         2         3        32     9        0.000000       -0.128376         3
        12         2         3        32     9      180.000000        0.188299         4
        12        22        23        24     9        0.000000       -0.232781         1
        12        22        23        24     9      180.000000       16.138112         2
        12        22        23        24     9        0.000000        0.112870         3
        12        22        23        24     9      180.000000       -0.771512         4
        12        22        23        28     9        0.000000       -0.441000         1
        12        22        23        28     9      180.000000       13.748339         2
        12        22        23        28     9        0.000000        0.083470         3
        12        22        23        28     9      180.000000       -0.804565         4
        12        22        27        26     9        0.000000        0.163473         1
        12        22        27        26     9      180.000000       18.714903         2
        12        22        27        26     9        0.000000        0.079172         3
        12        22        27        26     9      180.000000       -0.471153         4
        12        22        27        47     9        0.000000       -0.191942         1
        12        22        27        47     9      180.000000       15.202685         2
        12        22        27        47     9        0.000000       -0.143955         3
        12        22        27        47     9      180.000000        0.081676         4
        13        11        15        16     9        0.000000       -0.183449         1
        13        11        15        16     9      180.000000       20.850224         2
        13        11        15        16     9        0.000000       -1.683316         3
        13        11        15        16     9      180.000000       -0.513113         4
        13        11        15        38     9        0.000000        0.060950         1
        13        11        15        38     9      180.000000       13.908896         2
        13        11        15        38     9        0.000000       -0.456522         3
        13        11        15        38     9      180.000000        0.109681         4
        13        14        17        16     9        0.000000       -0.078279         1
        13        14        17        16     9      180.000000       19.312299         2
        13        14        17        16     9        0.000000       -2.075099         3
        13        14        17        16     9      180.000000       -0.384435         4
        13        14        17        18     9        0.000000        0.118318         1
        13        14        17        18     9      180.000000       13.391727         2
        13        14        17        18     9        0.000000       -0.511419         3
        13        14        17        18     9      180.000000       -0.145206         4
        14        13        11        15     9        0.000000       -0.065410         1
        14        13        11        15     9      180.000000       17.441544         2
        14        13        11        15     9        0.000000       -1.329842         3
        14        13        11        15     9      180.000000       -0.337279         4
        14        17        16        15     9        0.000000       -0.133893         1
        14        17        16        15     9      180.000000       10.794701         2
        14        17        16        15     9        0.000000       -1.527214         3
        14        17        16        15     9      180.000000       -0.100381         4
        14        17        16        20     9        0.000000        0.487087         1
        14        17        16        20     9      180.000000       11.126998         2
        14        17        16        20     9        0.000000       -2.247677         3
        14        17        16        20     9      180.000000       -0.106315         4
        14        17        18        19     9        0.000000        0.355092         1
        14        17        18        19     9      180.000000        4.201618         2
        14        17        18        19     9        0.000000       -0.563694         3
        14        17        18        19     9      180.000000        0.008346         4
        14        17        18        39     9        0.000000       -0.623804         1
        14        17        18        39     9      180.000000        4.278390         2
        14        17        18        39     9        0.000000       -0.168310         3
        14        17        18        39     9      180.000000        0.142292         4
        15        11        13        36     9        0.000000        0.068411         1
        15        11        13        36     9      180.000000       13.347190         2
        15        11        13        36     9        0.000000       -0.612319         3
        15        11        13        36     9      180.000000        0.142637         4
        15        16        17        18     9        0.000000        0.248175         1
        15        16        17        18     9      180.000000        9.818867         2
        15        16        17        18     9        0.000000       -1.629277         3
        15        16        17        18     9      180.000000        0.022165         4
        15        16        20        19     9        0.000000        0.500542         1
        15        16        20        19     9      180.000000        3.128844         2
        15        16        20        19     9        0.000000        0.183652         3
        15        16        20        19     9      180.000000        0.149882         4
        15        16        20        21     9        0.000000       -0.573621         1
        15        16        20        21     9      180.000000        2.163895         2
        15        16        20        21     9        0.000000       -0.138617         3
        15        16        20        21     9      180.000000        0.234159         4
        16        17        14        37     9        0.000000        0.129794         1
        16        17        14        37     9      180.000000       13.454266         2
        16        17        14        37     9        0.000000       -0.407698         3
        16        17        14        37     9      180.000000       -0.071090         4
        16        17        18        19     9        0.000000       -0.144250         1
        16        17        18        19     9      180.000000       27.856906         2
        16        17        18        19     9        0.000000       -8.906379         3
        16        17        18        19     9      180.000000       -0.172844         4
        16        17        18        39     9        0.000000        0.524513         1
        16        17        18        39     9      180.000000       10.013757         2
        16        17        18        39     9        0.000000        0.306404         3
        16        17        18        39     9      180.000000       -0.273153         4
        16        20        19        18     9        0.000000        0.071987         1
        16        20        19        18     9      180.000000       24.295210         2
        16        20        19        18     9        0.000000       -6.032990         3
        16        20        19        18     9      180.000000       -0.546083         4
        16        20        19        40     9        0.000000        1.179453         1
        16        20        19        40     9      180.000000        9.792244         2
        16        20        19        40     9        0.000000        0.433460         3
        16        20        19        40     9      180.000000       -0.227068         4
        16        20        21        41     9        0.000000       -0.029670         1
        16        20        21        41     9      180.000000        0.037189         2
        16        20        21        41     9        0.000000        0.648893         3
        16        20        21        41     9      180.000000        0.010602         4
        16        20        21        42     9        0.000000       -0.029670         1
        16        20        21        42     9      180.000000        0.037189         2
        16        20        21        42     9        0.000000        0.648893         3
        16        20        21        42     9      180.000000        0.010602         4
        16        20        21        43     9        0.000000       -0.029670         1
        16        20        21        43     9      180.000000        0.037189         2
        16        20        21        43     9        0.000000        0.648893         3
        16        20        21        43     9      180.000000        0.010602         4
        17        14        13        36     9        0.000000        0.095400         1
        17        14        13        36     9      180.000000       16.437461         2
        17        14        13        36     9        0.000000       -0.519789         3
        17        14        13        36     9      180.000000       -0.017390         4
        17        16        15        38     9        0.000000        0.110455         1
        17        16        15        38     9      180.000000       12.495681         2
        17        16        15        38     9        0.000000       -0.150764         3
        17        16        15        38     9      180.000000       -0.026669         4
        17        16        20        19     9        0.000000       -0.044930         1
        17        16        20        19     9      180.000000       21.153657         2
        17        16        20        19     9        0.000000       -5.745466         3
        17        16        20        19     9      180.000000       -0.067604         4
        17        16        20        21     9        0.000000        0.115831         1
        17        16        20        21     9      180.000000        2.619975         2
        17        16        20        21     9        0.000000        0.721152         3
        17        16        20        21     9      180.000000        0.210197         4
        17        18        19        20     9        0.000000       -0.260769         1
        17        18        19        20     9      180.000000       31.849324         2
        17        18        19        20     9        0.000000       -6.215833         3
        17        18        19        20     9      180.000000       -0.787799         4
        17        18        19        40     9        0.000000        0.028299         1
        17        18        19        40     9      180.000000       17.079476         2
        17        18        19        40     9        0.000000       -0.319769         3
        17        18        19        40     9      180.000000       -0.381525         4
        18        17        14        37     9        0.000000       -0.042377         1
        18        17        14        37     9      180.000000       10.471313         2
        18        17        14        37     9        0.000000        0.025302         3
        18        17        14        37     9      180.000000        0.084200         4
        18        17        16        20     9        0.000000        0.328899         1
        18        17        16        20     9      180.000000       18.442128         2
        18        17        16        20     9        0.000000       -5.909619         3
        18        17        16        20     9      180.000000       -0.307641         4
        18        19        20        21     9        0.000000        0.366988         1
        18        19        20        21     9      180.000000        4.347227         2
        18        19        20        21     9        0.000000        0.693744         3
        18        19        20        21     9      180.000000        0.283870         4
        19        20        21        41     9        0.000000       -0.051100         1
        19        20        21        41     9      180.000000       -0.000828         2
        19        20        21        41     9        0.000000        0.314565         3
        19        20        21        41     9      180.000000        0.005469         4
        19        20        21        42     9        0.000000       -0.051100         1
        19        20        21        42     9      180.000000       -0.000828         2
        19        20        21        42     9        0.000000        0.314565         3
        19        20        21        42     9      180.000000        0.005469         4
        19        20        21        43     9        0.000000       -0.051100         1
        19        20        21        43     9      180.000000       -0.000828         2
        19        20        21        43     9        0.000000        0.314565         3
        19        20        21        43     9      180.000000        0.005469         4
        20        16        15        38     9        0.000000        0.216517         1
        20        16        15        38     9      180.000000       11.255694         2
        20        16        15        38     9        0.000000       -0.046908         3
        20        16        15        38     9      180.000000        0.106758         4
        20        19        18        39     9        0.000000       -0.078116         1
        20        19        18        39     9      180.000000       15.996352         2
        20        19        18        39     9        0.000000       -0.292964         3
        20        19        18        39     9      180.000000       -0.324606         4
        21        20        19        40     9        0.000000       -0.501732         1
        21        20        19        40     9      180.000000        1.998448         2
        21        20        19        40     9        0.000000        0.284959         3
        21        20        19        40     9      180.000000       -0.030005         4
        22        23        24        25     9        0.000000       -0.054960         1
        22        23        24        25     9      180.000000       19.037793         2
        22        23        24        25     9        0.000000       -1.381742         3
        22        23        24        25     9      180.000000       -0.557626         4
        22        23        24        44     9        0.000000       -0.014319         1
        22        23        24        44     9      180.000000       14.041208         2
        22        23        24        44     9        0.000000       -0.518719         3
        22        23        24        44     9      180.000000       -0.045777         4
        22        23        28        29     9        0.000000       -3.648803         1
        22        23        28        29     9      180.000000        0.016555         2
        22        23        28        29     9        0.000000        0.086609         3
        22        23        28        29     9      180.000000        0.050979         4
        22        23        28        30     9        0.000000        3.266956         1
        22        23        28        30     9      180.000000        1.886960         2
        22        23        28        30     9        0.000000        0.928261         3
        22        23        28        30     9      180.000000       -0.303420         4
        22        27        26        25     9        0.000000       -0.112141         1
        22        27        26        25     9      180.000000       18.490555         2
        22        27        26        25     9        0.000000       -1.793446         3
        22        27        26        25     9      180.000000       -0.392211         4
        22        27        26        46     9        0.000000        0.043952         1
        22        27        26        46     9      180.000000       14.882362         2
        22        27        26        46     9        0.000000       -0.630388         3
        22        27        26        46     9      180.000000       -0.041985         4
        23        22        12        35     9        0.000000       -1.555599         1
        23        22        12        35     9      180.000000        1.764147         2
        23        22        12        35     9        0.000000       -1.206084         3
        23        22        12        35     9      180.000000        0.028350         4
        23        22        27        26     9        0.000000        0.038036         1
        23        22        27        26     9      180.000000       16.827646         2
        23        22        27        26     9        0.000000       -0.996043         3
        23        22        27        26     9      180.000000       -0.394242         4
        23        22        27        47     9        0.000000        0.040482         1
        23        22        27        47     9      180.000000       12.974021         2
        23        22        27        47     9        0.000000       -0.439172         3
        23        22        27        47     9      180.000000        0.012712         4
        23        24        25        26     9        0.000000        0.086915         1
        23        24        25        26     9      180.000000       19.579192         2
        23        24        25        26     9        0.000000       -1.863239         3
        23        24        25        26     9      180.000000       -0.611816         4
        23        24        25        45     9        0.000000        0.114984         1
        23        24        25        45     9      180.000000       15.482388         2
        23        24        25        45     9        0.000000       -0.616986         3
        23        24        25        45     9      180.000000       -0.142277         4
        23        28        30        48     9        0.000000        1.342489         1
        23        28        30        48     9      180.000000        7.770818         2
        23        28        30        48     9        0.000000        0.884438         3
        23        28        30        48     9      180.000000       -1.561899         4
        23        28        30        49     9        0.000000        1.342489         1
        23        28        30        49     9      180.000000        7.770818         2
        23        28        30        49     9        0.000000        0.884438         3
        23        28        30        49     9      180.000000       -1.561899         4
        24        23        22        27     9        0.000000       -0.025824         1
        24        23        22        27     9      180.000000       14.468725         2
        24        23        22        27     9        0.000000       -0.769195         3
        24        23        22        27     9      180.000000       -0.358904         4
        24        23        28        29     9        0.000000       -2.527118         1
        24        23        28        29     9      180.000000        0.718060         2
        24        23        28        29     9        0.000000       -0.259264         3
        24        23        28        29     9      180.000000        0.144760         4
        24        23        28        30     9        0.000000        1.125588         1
        24        23        28        30     9      180.000000        2.197359         2
        24        23        28        30     9        0.000000        1.100226         3
        24        23        28        30     9      180.000000       -0.359900         4
        24        25        26        27     9        0.000000        0.028933         1
        24        25        26        27     9      180.000000       17.298728         2
        24        25        26        27     9        0.000000       -1.598263         3
        24        25        26        27     9      180.000000       -0.349803         4
        24        25        26        46     9        0.000000        0.085896         1
        24        25        26        46     9      180.000000       13.912550         2
        24        25        26        46     9        0.000000       -0.782268         3
        24        25        26        46     9      180.000000        0.140649         4
        25        24        23        28     9        0.000000        0.275027         1
        25        24        23        28     9      180.000000       14.679462         2
        25        24        23        28     9        0.000000        0.200293         3
        25        24        23        28     9      180.000000       -0.322704         4
        25        26        27        47     9        0.000000       -0.001021         1
        25        26        27        47     9      180.000000       14.929981         2
        25        26        27        47     9        0.000000       -0.683555         3
        25        26        27        47     9      180.000000        0.095335         4
        26        25        24        44     9        0.000000       -0.035391         1
        26        25        24        44     9      180.000000       15.440354         2
        26        25        24        44     9        0.000000       -0.821295         3
        26        25        24        44     9      180.000000        0.079673         4
        27        22        12        35     9        0.000000       -0.725308         1
        27        22        12        35     9      180.000000        2.373495         2
        27        22        12        35     9        0.000000        0.023081         3
        27        22        12        35     9      180.000000       -0.029994         4
        27        22        23        28     9        0.000000       -0.544770         1
        27        22        23        28     9      180.000000       10.418097         2
        27        22        23        28     9        0.000000       -0.139773         3
        27        22        23        28     9      180.000000       -0.281110         4
        27        26        25        45     9        0.000000        0.102859         1
        27        26        25        45     9      180.000000       13.613250         2
        27        26        25        45     9        0.000000       -0.723111         3
        27        26        25        45     9      180.000000        0.130310         4
        28        23        24        44     9        0.000000        0.080246         1
        28        23        24        44     9      180.000000       12.549500         2
        28        23        24        44     9        0.000000       -0.138435         3
        28        23        24        44     9      180.000000        0.017747         4
        29        28        30        48     9        0.000000        0.728845         1
        29        28        30        48     9      180.000000        9.611891         2
        29        28        30        48     9        0.000000       -0.087445         3
        29        28        30        48     9      180.000000       -1.166074         4
        29        28        30        49     9        0.000000        0.728845         1
        29        28        30        49     9      180.000000        9.611891         2
        29        28        30        49     9        0.000000       -0.087445         3
        29        28        30        49     9      180.000000       -1.166074         4
        33         8         9        34     9        0.000000       -0.431715         1
        33         8         9        34     9      180.000000        6.869070         2
        33         8         9        34     9        0.000000       -0.569257         3
        33         8         9        34     9      180.000000        0.186659         4
        36        13        14        37     9        0.000000       -0.056311         1
        36        13        14        37     9      180.000000       12.658450         2
        36        13        14        37     9        0.000000       -0.675856         3
        36        13        14        37     9      180.000000        0.271777         4
        39        18        19        40     9        0.000000        0.003503         1
        39        18        19        40     9      180.000000       10.860043         2
        39        18        19        40     9        0.000000       -0.481074         3
        39        18        19        40     9      180.000000        0.121267         4
        44        24        25        45     9        0.000000       -0.233794         1
        44        24        25        45     9      180.000000       12.255145         2
        44        24        25        45     9        0.000000       -0.735194         3
        44        24        25        45     9      180.000000        0.300420         4
        45        25        26        46     9        0.000000       -0.138252         1
        45        25        26        46     9      180.000000       11.087801         2
        45        25        26        46     9        0.000000       -0.442401         3
        45        25        26        46     9      180.000000        0.195606         4
        46        26        27        47     9        0.000000       -0.101596         1
        46        26        27        47     9      180.000000       12.583533         2
        46        26        27        47     9        0.000000       -0.685631         3
        46        26        27        47     9      180.000000        0.241263         4

[ dihedrals ] ; impropers
;       ai        aj        ak        al funct           phase               k        pn
         8         7         9        33     4      180.000000        4.409855         2
         8         9        33         7     4      180.000000        4.409855         2
         8        33         7         9     4      180.000000        4.409855         2
         9         8        10        34     4      180.000000        4.162411         2
         9        10        34         8     4      180.000000        4.162411         2
         9        34         8        10     4      180.000000        4.162411         2
        28        23        29        30     4      180.000000       13.864094         2
        28        29        30        23     4      180.000000       13.864094         2
        28        30        23        29     4      180.000000       13.864094         2

[ pairs ]
;       ai        aj funct
         1         4     1
         1         7     1
         1         9     1
         1        22     1
         1        32     1
         1        35     1
         2         6     1
         2        10     1
         2        11     1
         2        23     1
         2        27     1
         3         5     1
         3         7     1
         3        13     1
         3        15     1
         3        22     1
         3        31     1
         3        35     1
         4         8     1
         4        10     1
         4        12     1
         4        14     1
         4        16     1
         4        36     1
         4        38     1
         5         8     1
         5        11     1
         5        12     1
         5        34     1
         6         9     1
         6        13     1
         6        15     1
         6        31     1
         6        32     1
         6        33     1
         7        10     1
         7        11     1
         7        34     1
        10        31     1
        10        33     1
        11        17     1
        11        20     1
        11        32     1
        11        37     1
        12        24     1
        12        26     1
        12        28     1
        12        31     1
        12        32     1
        12        47     1
        13        16     1
        13        18     1
        13        38     1
        14        15     1
        14        19     1
        14        20     1
        14        39     1
        15        18     1
        15        19     1
        15        21     1
        15        36     1
        16        37     1
        16        39     1
        16        40     1
        16        41     1
        16        42     1
        16        43     1
        17        21     1
        17        36     1
        17        38     1
        17        40     1
        18        21     1
        18        37     1
        19        41     1
        19        42     1
        19        43     1
        20        38     1
        20        39     1
        21        40     1
        22        25     1
        22        29     1
        22        30     1
        22        44     1
        22        46     1
        23        26     1
        23        35     1
        23        45     1
        23        47     1
        23        48     1
        23        49     1
        24        27     1
        24        29     1
        24        30     1
        24        46     1
        25        28     1
        25        47     1
        26        44     1
        27        28     1
        27        35     1
        27        45     1
        28        44     1
        29        48     1
        29        49     1
        33        34     1
        36        37     1
        39        40     1
        44        45     1
        45        46     1
        46        47     1
