; ITP file created by ByteFF-ML, 2026-02-21 07:45:25.543354

[ atomtypes ]
;name           bonded.type        at.num        mass        charge   ptype           sigma         epsilon
 n0bf                                   7      0.0000       0.00000       A     3.27859e-01     6.46992e-01
 c1bf                                   6      0.0000       0.00000       A     3.31547e-01     4.11280e-01
 c2bf                                   6      0.0000       0.00000       A     3.31588e-01     4.14303e-01
 c3bf                                   6      0.0000       0.00000       A     3.31169e-01     4.10702e-01
 c4bf                                   6      0.0000       0.00000       A     3.31581e-01     4.11588e-01
 c5bf                                   6      0.0000       0.00000       A     3.31387e-01     4.12836e-01
 c6bf                                   6      0.0000       0.00000       A     3.31696e-01     4.13506e-01
 c7bf                                   6      0.0000       0.00000       A     3.31420e-01     4.09858e-01
 c8bf                                   6      0.0000       0.00000       A     3.31417e-01     4.13037e-01
 c9bf                                   6      0.0000       0.00000       A     3.31516e-01     4.13372e-01
 c10bf                                  6      0.0000       0.00000       A     3.31421e-01     4.12921e-01
 c11bf                                  6      0.0000       0.00000       A     3.31536e-01     4.12022e-01
 c12bf                                  6      0.0000       0.00000       A     3.31301e-01     4.13151e-01
 c13bf                                  6      0.0000       0.00000       A     3.31466e-01     4.13157e-01
 c14bf                                  6      0.0000       0.00000       A     3.31464e-01     4.12298e-01
 n15bf                                  7      0.0000       0.00000       A     3.20674e-01     8.54162e-01
 c16bf                                  6      0.0000       0.00000       A     3.39830e-01     4.50430e-01
 n17bf                                  7      0.0000       0.00000       A     3.38456e-01     3.92772e-01
 c18bf                                  6      0.0000       0.00000       A     3.31562e-01     4.13392e-01
 c19bf                                  6      0.0000       0.00000       A     3.31514e-01     4.13144e-01
 n20bf                                  7      0.0000       0.00000       A     3.38246e-01     3.93082e-01
 c21bf                                  6      0.0000       0.00000       A     3.31419e-01     4.10452e-01
 c22bf                                  6      0.0000       0.00000       A     3.31391e-01     4.17548e-01
 c23bf                                  6      0.0000       0.00000       A     3.31305e-01     4.14514e-01
 c24bf                                  6      0.0000       0.00000       A     3.31558e-01     4.11990e-01
 c25bf                                  6      0.0000       0.00000       A     3.31452e-01     4.12850e-01
 c26bf                                  6      0.0000       0.00000       A     3.31381e-01     4.13569e-01
 s27bf                                 16      0.0000       0.00000       A     4.05899e-01     2.56338e-01
 c28bf                                  6      0.0000       0.00000       A     3.39611e-01     4.49156e-01
 o29bf                                  8      0.0000       0.00000       A     3.04857e-01     6.11370e-01
 o30bf                                  8      0.0000       0.00000       A     3.04857e-01     6.11370e-01
 h31bf                                  1      0.0000       0.00000       A     1.10824e-01     4.04189e-02
 h32bf                                  1      0.0000       0.00000       A     2.62381e-01     6.75967e-02
 h33bf                                  1      0.0000       0.00000       A     2.62399e-01     6.76733e-02
 h34bf                                  1      0.0000       0.00000       A     2.62523e-01     6.73238e-02
 h35bf                                  1      0.0000       0.00000       A     2.62498e-01     6.69232e-02
 h36bf                                  1      0.0000       0.00000       A     2.62405e-01     6.76334e-02
 h37bf                                  1      0.0000       0.00000       A     2.62695e-01     6.74962e-02
 h38bf                                  1      0.0000       0.00000       A     2.53862e-01     6.73015e-02
 h39bf                                  1      0.0000       0.00000       A     2.41969e-01     8.74279e-02
 h40bf                                  1      0.0000       0.00000       A     2.41969e-01     8.74279e-02
 h41bf                                  1      0.0000       0.00000       A     2.41969e-01     8.74279e-02
 h42bf                                  1      0.0000       0.00000       A     2.53506e-01     6.72855e-02
 h43bf                                  1      0.0000       0.00000       A     2.53506e-01     6.72855e-02
 h44bf                                  1      0.0000       0.00000       A     2.62798e-01     6.78074e-02
 h45bf                                  1      0.0000       0.00000       A     2.62462e-01     6.73701e-02
 h46bf                                  1      0.0000       0.00000       A     2.62480e-01     6.73318e-02
 h47bf                                  1      0.0000       0.00000       A     2.62452e-01     6.73350e-02
 h48bf                                  1      0.0000       0.00000       A     2.42021e-01     8.71597e-02
 h49bf                                  1      0.0000       0.00000       A     2.42021e-01     8.71597e-02
 h50bf                                  1      0.0000       0.00000       A     2.42021e-01     8.71597e-02

[ moleculetype ]
;name             nrexcl
 29_flip               3

[ atoms ]
;       nr            type      resi   res      atom      cgnr      charge          mass ; qtot
         1            n0bf         1   UNL        n0         1    -0.98108       14.0070 ; qtot   -0.981
         2            c1bf         1   UNL        c1         2     0.31190       12.0110 ; qtot   -0.669
         3            c2bf         1   UNL        c2         3    -0.13245       12.0110 ; qtot   -0.802
         4            c3bf         1   UNL        c3         4     0.02972       12.0110 ; qtot   -0.772
         5            c4bf         1   UNL        c4         5     0.21965       12.0110 ; qtot   -0.552
         6            c5bf         1   UNL        c5         6     0.25847       12.0110 ; qtot   -0.294
         7            c6bf         1   UNL        c6         7    -0.14353       12.0110 ; qtot   -0.437
         8            c7bf         1   UNL        c7         8    -0.02826       12.0110 ; qtot   -0.466
         9            c8bf         1   UNL        c8         9    -0.11542       12.0110 ; qtot   -0.581
        10            c9bf         1   UNL        c9        10    -0.07162       12.0110 ; qtot   -0.653
        11           c10bf         1   UNL       c10        11    -0.09246       12.0110 ; qtot   -0.745
        12           c11bf         1   UNL       c11        12    -0.04872       12.0110 ; qtot   -0.794
        13           c12bf         1   UNL       c12        13    -0.10478       12.0110 ; qtot   -0.899
        14           c13bf         1   UNL       c13        14    -0.24093       12.0110 ; qtot   -1.140
        15           c14bf         1   UNL       c14        15    -0.14808       12.0110 ; qtot   -1.288
        16           n15bf         1   UNL       n15        16    -0.10934       14.0070 ; qtot   -1.397
        17           c16bf         1   UNL       c16        17     0.06426       12.0110 ; qtot   -1.333
        18           n17bf         1   UNL       n17        18    -0.62285       14.0070 ; qtot   -1.956
        19           c18bf         1   UNL       c18        19     0.29405       12.0110 ; qtot   -1.661
        20           c19bf         1   UNL       c19        20     0.29317       12.0110 ; qtot   -1.368
        21           n20bf         1   UNL       n20        21    -0.62228       14.0070 ; qtot   -1.991
        22           c21bf         1   UNL       c21        22     0.39960       12.0110 ; qtot   -1.591
        23           c22bf         1   UNL       c22        23    -0.29933       12.0110 ; qtot   -1.890
        24           c23bf         1   UNL       c23        24    -0.00006       12.0110 ; qtot   -1.890
        25           c24bf         1   UNL       c24        25    -0.15465       12.0110 ; qtot   -2.045
        26           c25bf         1   UNL       c25        26    -0.04373       12.0110 ; qtot   -2.089
        27           c26bf         1   UNL       c26        27    -0.17647       12.0110 ; qtot   -2.265
        28           s27bf         1   UNL       s27        28     0.99955       32.0670 ; qtot   -1.266
        29           c28bf         1   UNL       c28        29    -0.29702       12.0110 ; qtot   -1.563
        30           o29bf         1   UNL       o29        30    -0.51845       15.9990 ; qtot   -2.081
        31           o30bf         1   UNL       o30        31    -0.51845       15.9990 ; qtot   -2.600
        32           h31bf         1   UNL       h31        32     0.51077        1.0080 ; qtot   -2.089
        33           h32bf         1   UNL       h32        33     0.12730        1.0080 ; qtot   -1.962
        34           h33bf         1   UNL       h33        34     0.14328        1.0080 ; qtot   -1.818
        35           h34bf         1   UNL       h34        35     0.12044        1.0080 ; qtot   -1.698
        36           h35bf         1   UNL       h35        36     0.11787        1.0080 ; qtot   -1.580
        37           h36bf         1   UNL       h36        37     0.12602        1.0080 ; qtot   -1.454
        38           h37bf         1   UNL       h37        38     0.20439        1.0080 ; qtot   -1.250
        39           h38bf         1   UNL       h38        39     0.20730        1.0080 ; qtot   -1.042
        40           h39bf         1   UNL       h39        40     0.04880        1.0080 ; qtot   -0.993
        41           h40bf         1   UNL       h40        41     0.04880        1.0080 ; qtot   -0.945
        42           h41bf         1   UNL       h41        42     0.04880        1.0080 ; qtot   -0.896
        43           h42bf         1   UNL       h42        43     0.03160        1.0080 ; qtot   -0.864
        44           h43bf         1   UNL       h43        44     0.03158        1.0080 ; qtot   -0.833
        45           h44bf         1   UNL       h44        45     0.14057        1.0080 ; qtot   -0.692
        46           h45bf         1   UNL       h45        46     0.12683        1.0080 ; qtot   -0.565
        47           h46bf         1   UNL       h46        47     0.11841        1.0080 ; qtot   -0.447
        48           h47bf         1   UNL       h47        48     0.13283        1.0080 ; qtot   -0.314
        49           h48bf         1   UNL       h48        49     0.10467        1.0080 ; qtot   -0.209
        50           h49bf         1   UNL       h49        50     0.10467        1.0080 ; qtot   -0.105
        51           h50bf         1   UNL       h50        51     0.10466        1.0080 ; qtot   -0.000

[ bonds ]
;       ai        aj funct               r               k
         1         2     1        0.140326   263559.670020
         1        22     1        0.139309   280371.055566
         1        32     1        0.101478   406996.914551
         2         3     1        0.142385   250858.099170
         2         7     1        0.138662   324959.308203
         3         4     1        0.138628   330545.857324
         3        33     1        0.108420   321509.091504
         4         5     1        0.143443   237124.931250
         4         8     1        0.148398   213063.534814
         5         6     1        0.143386   223579.461084
         5        21     1        0.136378   268382.250977
         6         7     1        0.141521   284459.010498
         6        18     1        0.136675   270922.835840
         7        34     1        0.108434   324306.120020
         8         9     1        0.142023   258564.534814
         8        13     1        0.140177   290488.705078
         9        10     1        0.138890   334507.684473
         9        35     1        0.108507   320582.503027
        10        11     1        0.140748   301486.669824
        10        36     1        0.108659   317447.771777
        11        12     1        0.142620   240876.690137
        11        14     1        0.143732   250154.756104
        12        13     1        0.139784   309529.914404
        12        16     1        0.138337   262427.661035
        13        37     1        0.108455   321154.636426
        14        15     1        0.137637   378975.044434
        14        38     1        0.108169   334460.823877
        15        16     1        0.138674   275419.154687
        15        39     1        0.108218   333100.385449
        16        17     1        0.145037   228862.935791
        17        40     1        0.109354   299824.280615
        17        41     1        0.109354   299824.280615
        17        42     1        0.109354   299824.280615
        18        19     1        0.131846   380187.291016
        19        20     1        0.142216   238192.535645
        19        43     1        0.108836   315483.789307
        20        21     1        0.131881   374103.202393
        20        44     1        0.108820   315940.137451
        22        23     1        0.141612   259786.587646
        22        27     1        0.141028   273760.468359
        23        24     1        0.139792   303391.891406
        23        28     1        0.180135   125518.748682
        24        25     1        0.139425   316757.656934
        24        45     1        0.108483   324011.243018
        25        26     1        0.139924   304440.266357
        25        46     1        0.108511   324013.694580
        26        27     1        0.139338   324122.099609
        26        47     1        0.108605   320460.639941
        27        48     1        0.108373   325375.358789
        28        29     1        0.180862   140616.887866
        28        30     1        0.147585   490072.961914
        28        31     1        0.147585   490072.961914
        29        49     1        0.109028   319230.083252
        29        50     1        0.109028   319230.083252
        29        51     1        0.109028   319230.083252

[ angles ]
;       ai        aj        ak funct           theta             cth
         1         2         3     1      119.149704      537.811396
         1         2         7     1      121.259583      489.154073
         1        22        23     1      120.715469      533.736567
         1        22        27     1      121.813744      531.190677
         2         1        22     1      126.435043      422.240717
         2         1        32     1      115.376427      433.679268
         2         3         4     1      122.427834      715.039446
         2         3        33     1      118.454636      447.474606
         2         7         6     1      120.283737      539.043114
         2         7        34     1      121.895042      423.778211
         3         2         7     1      119.290306      642.477409
         3         4         5     1      118.274673      534.012432
         3         4         8     1      119.145592      472.282120
         4         3        33     1      118.685989      415.785479
         4         5         6     1      118.941978      697.082261
         4         5        21     1      120.418312      431.095519
         4         8         9     1      119.991798      509.193458
         4         8        13     1      120.170876      423.701025
         5         4         8     1      122.735001      444.446511
         5         6         7     1      120.564919      663.113500
         5         6        18     1      121.322975      705.924740
         5        21        20     1      117.611557      602.010986
         6         5        21     1      120.208412      782.715531
         6         7        34     1      117.843239      439.647833
         6        18        19     1      116.661819      559.934704
         7         6        18     1      118.281189      431.307987
         8         9        10     1      121.801224      641.863816
         8         9        35     1      118.687279      420.254601
         8        13        12     1      118.398575      751.074478
         8        13        37     1      120.057411      403.248833
         9         8        13     1      119.636536      629.940923
         9        10        11     1      119.249611      721.006127
         9        10        36     1      120.280472      430.417668
        10         9        35     1      119.736038      414.498728
        10        11        12     1      118.372032      712.683903
        10        11        14     1      134.867035      476.020082
        11        10        36     1      120.565613      437.227138
        11        12        13     1      122.437134      653.014148
        11        12        16     1      107.846840      167.360000
        11        14        15     1      106.844933      436.901987
        11        14        38     1      127.302994      394.236308
        12        11        14     1      106.661888      331.741160
        12        13        37     1      121.695938      415.416116
        12        16        15     1      108.453735      401.502669
        12        16        17     1      125.119263      518.958401
        13        12        16     1      129.874054      438.808396
        14        15        16     1      110.138916      213.458281
        14        15        39     1      129.977615      347.479457
        15        14        38     1      125.794395      397.722794
        15        16        17     1      126.406151      427.630292
        16        15        39     1      120.093422      439.489056
        16        17        40     1      110.346970      460.989003
        16        17        41     1      110.346970      460.989003
        16        17        42     1      110.346970      460.989003
        18        19        20     1      122.299545      738.442163
        18        19        43     1      117.380966      342.428153
        19        20        21     1      122.256546      732.863901
        19        20        44     1      120.142014      430.475797
        20        19        43     1      120.145851      429.987368
        21        20        44     1      117.339157      362.478902
        22         1        32     1      114.341896      450.439975
        22        23        24     1      121.419899      715.637333
        22        23        28     1      121.349098      760.874216
        22        27        26     1      120.928391      743.849008
        22        27        48     1      118.989037      434.171559
        23        22        27     1      117.264992      616.392082
        23        24        25     1      120.196213      633.189690
        23        24        45     1      118.895279      344.771853
        23        28        29     1      103.429153      640.730032
        23        28        30     1      108.396278      642.790430
        23        28        31     1      108.396278      642.790430
        24        23        28     1      116.658401      550.381016
        24        25        26     1      119.070877      719.269923
        24        25        46     1      120.175636      434.201150
        25        24        45     1      120.875694      408.054694
        25        26        27     1      120.979385      705.913632
        25        26        47     1      120.018967      424.372076
        26        25        46     1      120.666183      428.425167
        26        27        48     1      120.086746      416.940873
        27        26        47     1      119.137917      424.386218
        28        29        49     1      107.711838      569.095121
        28        29        50     1      107.711838      569.095121
        28        29        51     1      107.711838      569.095121
        29        28        30     1      107.360229      735.184267
        29        28        31     1      107.360229      735.184267
        30        28        31     1      119.732224      746.919462
        40        17        41     1      108.719864      352.472281
        40        17        42     1      108.719864      352.472281
        41        17        42     1      108.719864      352.472281
        49        29        50     1      111.147987      344.776258
        49        29        51     1      111.147987      344.776258
        50        29        51     1      111.147987      344.776258

[ dihedrals ] ; propers for gromacs 4.5 or higher, use funct 9
;       ai        aj        ak        al funct           phase               k        pn
         1         2         3         4     9        0.000000        0.201615         1
         1         2         3         4     9      180.000000       15.514738         2
         1         2         3         4     9        0.000000        0.096511         3
         1         2         3         4     9      180.000000       -0.430376         4
         1         2         3        33     9        0.000000       -0.079767         1
         1         2         3        33     9      180.000000       14.001761         2
         1         2         3        33     9        0.000000       -0.062853         3
         1         2         3        33     9      180.000000        0.159847         4
         1         2         7         6     9        0.000000        0.254280         1
         1         2         7         6     9      180.000000       19.495378         2
         1         2         7         6     9        0.000000        0.050437         3
         1         2         7         6     9      180.000000       -0.785562         4
         1         2         7        34     9        0.000000       -0.001659         1
         1         2         7        34     9      180.000000       15.309274         2
         1         2         7        34     9        0.000000       -0.081248         3
         1         2         7        34     9      180.000000        0.161340         4
         1        22        23        24     9        0.000000        0.154756         1
         1        22        23        24     9      180.000000       16.322373         2
         1        22        23        24     9        0.000000        0.024092         3
         1        22        23        24     9      180.000000       -0.590187         4
         1        22        23        28     9        0.000000       -0.853769         1
         1        22        23        28     9      180.000000       13.699255         2
         1        22        23        28     9        0.000000        0.026868         3
         1        22        23        28     9      180.000000       -0.683198         4
         1        22        27        26     9        0.000000        0.203410         1
         1        22        27        26     9      180.000000       18.764113         2
         1        22        27        26     9        0.000000        0.081683         3
         1        22        27        26     9      180.000000       -0.552506         4
         1        22        27        48     9        0.000000       -0.185038         1
         1        22        27        48     9      180.000000       15.177752         2
         1        22        27        48     9        0.000000       -0.150059         3
         1        22        27        48     9      180.000000        0.093805         4
         2         1        22        23     9        0.000000       -1.528389         1
         2         1        22        23     9      180.000000        4.458363         2
         2         1        22        23     9        0.000000       -0.613757         3
         2         1        22        23     9      180.000000        0.134877         4
         2         1        22        27     9        0.000000       -0.132255         1
         2         1        22        27     9      180.000000        3.827051         2
         2         1        22        27     9        0.000000       -0.411188         3
         2         1        22        27     9      180.000000        0.200790         4
         2         3         4         5     9        0.000000       -0.216478         1
         2         3         4         5     9      180.000000       19.325605         2
         2         3         4         5     9        0.000000       -1.523257         3
         2         3         4         5     9      180.000000       -0.307807         4
         2         3         4         8     9        0.000000        0.339991         1
         2         3         4         8     9      180.000000       19.280569         2
         2         3         4         8     9        0.000000        0.022937         3
         2         3         4         8     9      180.000000       -0.792056         4
         2         7         6         5     9        0.000000       -0.542630         1
         2         7         6         5     9      180.000000       13.610231         2
         2         7         6         5     9        0.000000       -0.950539         3
         2         7         6         5     9      180.000000       -0.179363         4
         2         7         6        18     9        0.000000       -0.313219         1
         2         7         6        18     9      180.000000       13.967254         2
         2         7         6        18     9        0.000000       -0.425740         3
         2         7         6        18     9      180.000000       -0.391349         4
         3         2         1        22     9        0.000000       -0.101453         1
         3         2         1        22     9      180.000000        3.639047         2
         3         2         1        22     9        0.000000       -0.020382         3
         3         2         1        22     9      180.000000        0.119510         4
         3         2         1        32     9        0.000000       -0.449640         1
         3         2         1        32     9      180.000000        3.560992         2
         3         2         1        32     9        0.000000        0.075072         3
         3         2         1        32     9      180.000000        0.124277         4
         3         2         7         6     9        0.000000       -0.173656         1
         3         2         7         6     9      180.000000       17.235817         2
         3         2         7         6     9        0.000000       -1.145277         3
         3         2         7         6     9      180.000000       -0.415938         4
         3         2         7        34     9        0.000000        0.057930         1
         3         2         7        34     9      180.000000       13.340825         2
         3         2         7        34     9        0.000000       -0.355939         3
         3         2         7        34     9      180.000000        0.133132         4
         3         4         5         6     9        0.000000       -0.407538         1
         3         4         5         6     9      180.000000       10.542523         2
         3         4         5         6     9        0.000000       -0.867662         3
         3         4         5         6     9      180.000000        0.040791         4
         3         4         5        21     9        0.000000        0.050014         1
         3         4         5        21     9      180.000000        9.582072         2
         3         4         5        21     9        0.000000       -0.305997         3
         3         4         5        21     9      180.000000       -0.087278         4
         3         4         8         9     9        0.000000       -0.479631         1
         3         4         8         9     9      180.000000        4.596342         2
         3         4         8         9     9        0.000000       -0.037898         3
         3         4         8         9     9      180.000000        0.664984         4
         3         4         8        13     9        0.000000       -0.281079         1
         3         4         8        13     9      180.000000        4.548833         2
         3         4         8        13     9        0.000000        0.184037         3
         3         4         8        13     9      180.000000        0.569056         4
         4         3         2         7     9        0.000000        0.166877         1
         4         3         2         7     9      180.000000       14.123287         2
         4         3         2         7     9        0.000000       -0.826004         3
         4         3         2         7     9      180.000000       -0.240097         4
         4         5         6         7     9        0.000000        0.151865         1
         4         5         6         7     9      180.000000       11.489531         2
         4         5         6         7     9        0.000000       -0.456158         3
         4         5         6         7     9      180.000000       -0.212062         4
         4         5         6        18     9        0.000000       -0.330477         1
         4         5         6        18     9      180.000000       10.070722         2
         4         5         6        18     9        0.000000        0.089420         3
         4         5         6        18     9      180.000000       -0.272537         4
         4         5        21        20     9        0.000000        0.601589         1
         4         5        21        20     9      180.000000       16.401413         2
         4         5        21        20     9        0.000000        0.383470         3
         4         5        21        20     9      180.000000       -0.372567         4
         4         8         9        10     9        0.000000        0.279806         1
         4         8         9        10     9      180.000000       14.116178         2
         4         8         9        10     9        0.000000       -0.110733         3
         4         8         9        10     9      180.000000       -0.148110         4
         4         8         9        35     9        0.000000       -0.010357         1
         4         8         9        35     9      180.000000       12.522141         2
         4         8         9        35     9        0.000000       -0.209991         3
         4         8         9        35     9      180.000000        0.141486         4
         4         8        13        12     9        0.000000        0.136674         1
         4         8        13        12     9      180.000000       16.945797         2
         4         8        13        12     9        0.000000        0.082086         3
         4         8        13        12     9      180.000000       -0.583671         4
         4         8        13        37     9        0.000000       -0.030768         1
         4         8        13        37     9      180.000000       12.702616         2
         4         8        13        37     9        0.000000       -0.105190         3
         4         8        13        37     9      180.000000        0.147513         4
         5         4         3        33     9        0.000000        0.197520         1
         5         4         3        33     9      180.000000       15.644650         2
         5         4         3        33     9        0.000000       -0.327288         3
         5         4         3        33     9      180.000000        0.175226         4
         5         4         8         9     9        0.000000       -0.007630         1
         5         4         8         9     9      180.000000        4.221758         2
         5         4         8         9     9        0.000000       -0.027698         3
         5         4         8         9     9      180.000000        0.767394         4
         5         4         8        13     9        0.000000       -0.418488         1
         5         4         8        13     9      180.000000        4.256819         2
         5         4         8        13     9        0.000000       -0.213207         3
         5         4         8        13     9      180.000000        0.830009         4
         5         6         7        34     9        0.000000       -0.170722         1
         5         6         7        34     9      180.000000       10.545503         2
         5         6         7        34     9        0.000000       -0.262492         3
         5         6         7        34     9      180.000000       -0.003795         4
         5         6        18        19     9        0.000000       -0.107917         1
         5         6        18        19     9      180.000000       16.440885         2
         5         6        18        19     9        0.000000        0.043441         3
         5         6        18        19     9      180.000000       -0.231040         4
         5        21        20        19     9        0.000000        0.103246         1
         5        21        20        19     9      180.000000       25.050131         2
         5        21        20        19     9        0.000000       -0.948796         3
         5        21        20        19     9      180.000000       -0.159022         4
         5        21        20        44     9        0.000000        0.727426         1
         5        21        20        44     9      180.000000       22.903268         2
         5        21        20        44     9        0.000000        0.106513         3
         5        21        20        44     9      180.000000       -0.552430         4
         6         5         4         8     9        0.000000        0.119155         1
         6         5         4         8     9      180.000000       12.677564         2
         6         5         4         8     9        0.000000       -0.023199         3
         6         5         4         8     9      180.000000       -0.468568         4
         6         5        21        20     9        0.000000        0.188121         1
         6         5        21        20     9      180.000000       16.793790         2
         6         5        21        20     9        0.000000       -0.050993         3
         6         5        21        20     9      180.000000       -0.239062         4
         6        18        19        20     9        0.000000       -0.161990         1
         6        18        19        20     9      180.000000       25.805862         2
         6        18        19        20     9        0.000000       -0.989157         3
         6        18        19        20     9      180.000000       -0.201960         4
         6        18        19        43     9        0.000000        0.808512         1
         6        18        19        43     9      180.000000       23.535884         2
         6        18        19        43     9        0.000000        0.064004         3
         6        18        19        43     9      180.000000       -0.475718         4
         7         2         1        22     9        0.000000       -0.108689         1
         7         2         1        22     9      180.000000        3.753661         2
         7         2         1        22     9        0.000000       -0.403805         3
         7         2         1        22     9      180.000000        0.139456         4
         7         2         1        32     9        0.000000       -0.462954         1
         7         2         1        32     9      180.000000        3.773039         2
         7         2         1        32     9        0.000000       -0.082253         3
         7         2         1        32     9      180.000000        0.093564         4
         7         2         3        33     9        0.000000       -0.064361         1
         7         2         3        33     9      180.000000       11.923067         2
         7         2         3        33     9        0.000000       -0.429444         3
         7         2         3        33     9      180.000000        0.113737         4
         7         6         5        21     9        0.000000        0.340548         1
         7         6         5        21     9      180.000000       11.179590         2
         7         6         5        21     9        0.000000       -0.065208         3
         7         6         5        21     9      180.000000       -0.244500         4
         7         6        18        19     9        0.000000       -0.023334         1
         7         6        18        19     9      180.000000       18.424194         2
         7         6        18        19     9        0.000000        0.154346         3
         7         6        18        19     9      180.000000       -0.275637         4
         8         4         3        33     9        0.000000        0.009108         1
         8         4         3        33     9      180.000000       14.924332         2
         8         4         3        33     9        0.000000       -0.149141         3
         8         4         3        33     9      180.000000        0.103227         4
         8         4         5        21     9        0.000000       -0.537273         1
         8         4         5        21     9      180.000000       12.390914         2
         8         4         5        21     9        0.000000       -0.149751         3
         8         4         5        21     9      180.000000       -0.482238         4
         8         9        10        11     9        0.000000       -0.118289         1
         8         9        10        11     9      180.000000       21.128616         2
         8         9        10        11     9        0.000000       -1.641640         3
         8         9        10        11     9      180.000000       -0.503143         4
         8         9        10        36     9        0.000000        0.009879         1
         8         9        10        36     9      180.000000       15.243819         2
         8         9        10        36     9        0.000000       -0.469502         3
         8         9        10        36     9      180.000000        0.094909         4
         8        13        12        11     9        0.000000       -0.017252         1
         8        13        12        11     9      180.000000       17.488273         2
         8        13        12        11     9        0.000000       -1.598856         3
         8        13        12        11     9      180.000000       -0.379347         4
         8        13        12        16     9        0.000000        0.196074         1
         8        13        12        16     9      180.000000       15.844593         2
         8        13        12        16     9        0.000000       -0.300946         3
         8        13        12        16     9      180.000000       -0.376237         4
         9         8        13        12     9        0.000000       -0.183449         1
         9         8        13        12     9      180.000000       20.850220         2
         9         8        13        12     9        0.000000       -1.683317         3
         9         8        13        12     9      180.000000       -0.513113         4
         9         8        13        37     9        0.000000        0.060949         1
         9         8        13        37     9      180.000000       13.908898         2
         9         8        13        37     9        0.000000       -0.456522         3
         9         8        13        37     9      180.000000        0.109681         4
         9        10        11        12     9        0.000000       -0.078279         1
         9        10        11        12     9      180.000000       19.312299         2
         9        10        11        12     9        0.000000       -2.075099         3
         9        10        11        12     9      180.000000       -0.384435         4
         9        10        11        14     9        0.000000        0.118318         1
         9        10        11        14     9      180.000000       13.391727         2
         9        10        11        14     9        0.000000       -0.511419         3
         9        10        11        14     9      180.000000       -0.145206         4
        10         9         8        13     9        0.000000       -0.065410         1
        10         9         8        13     9      180.000000       17.441546         2
        10         9         8        13     9        0.000000       -1.329842         3
        10         9         8        13     9      180.000000       -0.337278         4
        10        11        12        13     9        0.000000       -0.133893         1
        10        11        12        13     9      180.000000       10.794701         2
        10        11        12        13     9        0.000000       -1.527214         3
        10        11        12        13     9      180.000000       -0.100381         4
        10        11        12        16     9        0.000000        0.487087         1
        10        11        12        16     9      180.000000       11.126998         2
        10        11        12        16     9        0.000000       -2.247677         3
        10        11        12        16     9      180.000000       -0.106315         4
        10        11        14        15     9        0.000000        0.355092         1
        10        11        14        15     9      180.000000        4.201618         2
        10        11        14        15     9        0.000000       -0.563694         3
        10        11        14        15     9      180.000000        0.008346         4
        10        11        14        38     9        0.000000       -0.623804         1
        10        11        14        38     9      180.000000        4.278390         2
        10        11        14        38     9        0.000000       -0.168310         3
        10        11        14        38     9      180.000000        0.142292         4
        11        10         9        35     9        0.000000        0.095400         1
        11        10         9        35     9      180.000000       16.437461         2
        11        10         9        35     9        0.000000       -0.519789         3
        11        10         9        35     9      180.000000       -0.017390         4
        11        12        13        37     9        0.000000        0.110456         1
        11        12        13        37     9      180.000000       12.495681         2
        11        12        13        37     9        0.000000       -0.150763         3
        11        12        13        37     9      180.000000       -0.026669         4
        11        12        16        15     9        0.000000       -0.044930         1
        11        12        16        15     9      180.000000       21.153657         2
        11        12        16        15     9        0.000000       -5.745466         3
        11        12        16        15     9      180.000000       -0.067604         4
        11        12        16        17     9        0.000000        0.115831         1
        11        12        16        17     9      180.000000        2.619975         2
        11        12        16        17     9        0.000000        0.721152         3
        11        12        16        17     9      180.000000        0.210197         4
        11        14        15        16     9        0.000000       -0.260769         1
        11        14        15        16     9      180.000000       31.849324         2
        11        14        15        16     9        0.000000       -6.215833         3
        11        14        15        16     9      180.000000       -0.787799         4
        11        14        15        39     9        0.000000        0.028299         1
        11        14        15        39     9      180.000000       17.079478         2
        11        14        15        39     9        0.000000       -0.319768         3
        11        14        15        39     9      180.000000       -0.381525         4
        12        11        10        36     9        0.000000        0.129794         1
        12        11        10        36     9      180.000000       13.454266         2
        12        11        10        36     9        0.000000       -0.407698         3
        12        11        10        36     9      180.000000       -0.071090         4
        12        11        14        15     9        0.000000       -0.144250         1
        12        11        14        15     9      180.000000       27.856906         2
        12        11        14        15     9        0.000000       -8.906379         3
        12        11        14        15     9      180.000000       -0.172844         4
        12        11        14        38     9        0.000000        0.524513         1
        12        11        14        38     9      180.000000       10.013757         2
        12        11        14        38     9        0.000000        0.306404         3
        12        11        14        38     9      180.000000       -0.273153         4
        12        16        15        14     9        0.000000        0.071987         1
        12        16        15        14     9      180.000000       24.295210         2
        12        16        15        14     9        0.000000       -6.032990         3
        12        16        15        14     9      180.000000       -0.546083         4
        12        16        15        39     9        0.000000        1.179454         1
        12        16        15        39     9      180.000000        9.792243         2
        12        16        15        39     9        0.000000        0.433460         3
        12        16        15        39     9      180.000000       -0.227068         4
        12        16        17        40     9        0.000000       -0.029670         1
        12        16        17        40     9      180.000000        0.037189         2
        12        16        17        40     9        0.000000        0.648893         3
        12        16        17        40     9      180.000000        0.010602         4
        12        16        17        41     9        0.000000       -0.029670         1
        12        16        17        41     9      180.000000        0.037189         2
        12        16        17        41     9        0.000000        0.648893         3
        12        16        17        41     9      180.000000        0.010602         4
        12        16        17        42     9        0.000000       -0.029670         1
        12        16        17        42     9      180.000000        0.037189         2
        12        16        17        42     9        0.000000        0.648893         3
        12        16        17        42     9      180.000000        0.010602         4
        13         8         9        35     9        0.000000        0.068411         1
        13         8         9        35     9      180.000000       13.347188         2
        13         8         9        35     9        0.000000       -0.612319         3
        13         8         9        35     9      180.000000        0.142637         4
        13        12        11        14     9        0.000000        0.248175         1
        13        12        11        14     9      180.000000        9.818867         2
        13        12        11        14     9        0.000000       -1.629277         3
        13        12        11        14     9      180.000000        0.022165         4
        13        12        16        15     9        0.000000        0.500542         1
        13        12        16        15     9      180.000000        3.128844         2
        13        12        16        15     9        0.000000        0.183652         3
        13        12        16        15     9      180.000000        0.149882         4
        13        12        16        17     9        0.000000       -0.573621         1
        13        12        16        17     9      180.000000        2.163895         2
        13        12        16        17     9        0.000000       -0.138617         3
        13        12        16        17     9      180.000000        0.234159         4
        14        11        10        36     9        0.000000       -0.042377         1
        14        11        10        36     9      180.000000       10.471313         2
        14        11        10        36     9        0.000000        0.025302         3
        14        11        10        36     9      180.000000        0.084200         4
        14        11        12        16     9        0.000000        0.328899         1
        14        11        12        16     9      180.000000       18.442128         2
        14        11        12        16     9        0.000000       -5.909619         3
        14        11        12        16     9      180.000000       -0.307641         4
        14        15        16        17     9        0.000000        0.366988         1
        14        15        16        17     9      180.000000        4.347227         2
        14        15        16        17     9        0.000000        0.693744         3
        14        15        16        17     9      180.000000        0.283870         4
        15        16        17        40     9        0.000000       -0.051100         1
        15        16        17        40     9      180.000000       -0.000828         2
        15        16        17        40     9        0.000000        0.314565         3
        15        16        17        40     9      180.000000        0.005469         4
        15        16        17        41     9        0.000000       -0.051100         1
        15        16        17        41     9      180.000000       -0.000828         2
        15        16        17        41     9        0.000000        0.314565         3
        15        16        17        41     9      180.000000        0.005469         4
        15        16        17        42     9        0.000000       -0.051100         1
        15        16        17        42     9      180.000000       -0.000828         2
        15        16        17        42     9        0.000000        0.314565         3
        15        16        17        42     9      180.000000        0.005469         4
        16        12        13        37     9        0.000000        0.216516         1
        16        12        13        37     9      180.000000       11.255693         2
        16        12        13        37     9        0.000000       -0.046908         3
        16        12        13        37     9      180.000000        0.106758         4
        16        15        14        38     9        0.000000       -0.078117         1
        16        15        14        38     9      180.000000       15.996350         2
        16        15        14        38     9        0.000000       -0.292963         3
        16        15        14        38     9      180.000000       -0.324606         4
        17        16        15        39     9        0.000000       -0.501731         1
        17        16        15        39     9      180.000000        1.998447         2
        17        16        15        39     9        0.000000        0.284959         3
        17        16        15        39     9      180.000000       -0.030005         4
        18         6         5        21     9        0.000000        0.159899         1
        18         6         5        21     9      180.000000       11.086216         2
        18         6         5        21     9        0.000000        0.160518         3
        18         6         5        21     9      180.000000       -0.397159         4
        18         6         7        34     9        0.000000        0.016940         1
        18         6         7        34     9      180.000000       11.980063         2
        18         6         7        34     9        0.000000       -0.349904         3
        18         6         7        34     9      180.000000        0.012863         4
        18        19        20        21     9        0.000000       -0.713203         1
        18        19        20        21     9      180.000000       11.742392         2
        18        19        20        21     9        0.000000       -0.552180         3
        18        19        20        21     9      180.000000       -0.521536         4
        18        19        20        44     9        0.000000       -0.199021         1
        18        19        20        44     9      180.000000        9.267618         2
        18        19        20        44     9        0.000000       -0.318099         3
        18        19        20        44     9      180.000000       -0.090080         4
        21        20        19        43     9        0.000000       -0.026031         1
        21        20        19        43     9      180.000000        9.508287         2
        21        20        19        43     9        0.000000       -0.255749         3
        21        20        19        43     9      180.000000       -0.134502         4
        22        23        24        25     9        0.000000       -0.136048         1
        22        23        24        25     9      180.000000       19.343814         2
        22        23        24        25     9        0.000000       -1.710311         3
        22        23        24        25     9      180.000000       -0.438717         4
        22        23        24        45     9        0.000000        0.305022         1
        22        23        24        45     9      180.000000       14.938741         2
        22        23        24        45     9        0.000000       -0.379286         3
        22        23        24        45     9      180.000000        0.119981         4
        22        23        28        29     9        0.000000        3.241550         1
        22        23        28        29     9      180.000000       -2.271907         2
        22        23        28        29     9        0.000000        0.817207         3
        22        23        28        29     9      180.000000        0.047124         4
        22        23        28        30     9        0.000000       -1.356407         1
        22        23        28        30     9      180.000000        0.984198         2
        22        23        28        30     9        0.000000        0.931428         3
        22        23        28        30     9      180.000000       -0.187750         4
        22        23        28        31     9        0.000000       -1.356407         1
        22        23        28        31     9      180.000000        0.984198         2
        22        23        28        31     9        0.000000        0.931428         3
        22        23        28        31     9      180.000000       -0.187750         4
        22        27        26        25     9        0.000000       -0.155900         1
        22        27        26        25     9      180.000000       18.858044         2
        22        27        26        25     9        0.000000       -1.780389         3
        22        27        26        25     9      180.000000       -0.509439         4
        22        27        26        47     9        0.000000       -0.004886         1
        22        27        26        47     9      180.000000       15.302983         2
        22        27        26        47     9        0.000000       -0.660976         3
        22        27        26        47     9      180.000000       -0.024938         4
        23        22         1        32     9        0.000000        1.999352         1
        23        22         1        32     9      180.000000        3.193166         2
        23        22         1        32     9        0.000000       -0.540220         3
        23        22         1        32     9      180.000000        0.119540         4
        23        22        27        26     9        0.000000       -0.211905         1
        23        22        27        26     9      180.000000       16.500583         2
        23        22        27        26     9        0.000000       -1.238962         3
        23        22        27        26     9      180.000000       -0.398641         4
        23        22        27        48     9        0.000000       -0.066678         1
        23        22        27        48     9      180.000000       13.288613         2
        23        22        27        48     9        0.000000       -0.547483         3
        23        22        27        48     9      180.000000        0.018996         4
        23        24        25        26     9        0.000000       -0.121025         1
        23        24        25        26     9      180.000000       18.652524         2
        23        24        25        26     9        0.000000       -1.643363         3
        23        24        25        26     9      180.000000       -0.409956         4
        23        24        25        46     9        0.000000       -0.068935         1
        23        24        25        46     9      180.000000       14.602971         2
        23        24        25        46     9        0.000000       -0.496092         3
        23        24        25        46     9      180.000000       -0.015270         4
        23        28        29        49     9        0.000000        0.145730         1
        23        28        29        49     9      180.000000       -0.180148         2
        23        28        29        49     9        0.000000        0.309036         3
        23        28        29        49     9      180.000000       -0.024038         4
        23        28        29        50     9        0.000000        0.145730         1
        23        28        29        50     9      180.000000       -0.180148         2
        23        28        29        50     9        0.000000        0.309036         3
        23        28        29        50     9      180.000000       -0.024038         4
        23        28        29        51     9        0.000000        0.145730         1
        23        28        29        51     9      180.000000       -0.180148         2
        23        28        29        51     9        0.000000        0.309036         3
        23        28        29        51     9      180.000000       -0.024038         4
        24        23        22        27     9        0.000000       -0.040531         1
        24        23        22        27     9      180.000000       14.617471         2
        24        23        22        27     9        0.000000       -0.910727         3
        24        23        22        27     9      180.000000       -0.272608         4
        24        23        28        29     9        0.000000       -0.070295         1
        24        23        28        29     9      180.000000       -0.781528         2
        24        23        28        29     9        0.000000       -0.459860         3
        24        23        28        29     9      180.000000        0.238930         4
        24        23        28        30     9        0.000000       -0.087571         1
        24        23        28        30     9      180.000000        0.734137         2
        24        23        28        30     9        0.000000       -0.284929         3
        24        23        28        30     9      180.000000       -0.018808         4
        24        23        28        31     9        0.000000       -0.087571         1
        24        23        28        31     9      180.000000        0.734137         2
        24        23        28        31     9        0.000000       -0.284929         3
        24        23        28        31     9      180.000000       -0.018808         4
        24        25        26        27     9        0.000000       -0.034755         1
        24        25        26        27     9      180.000000       18.284933         2
        24        25        26        27     9        0.000000       -1.611374         3
        24        25        26        27     9      180.000000       -0.385155         4
        24        25        26        47     9        0.000000        0.122020         1
        24        25        26        47     9      180.000000       14.616029         2
        24        25        26        47     9        0.000000       -0.687110         3
        24        25        26        47     9      180.000000        0.053495         4
        25        24        23        28     9        0.000000       -0.129826         1
        25        24        23        28     9      180.000000       14.273818         2
        25        24        23        28     9        0.000000        0.076305         3
        25        24        23        28     9      180.000000       -0.355929         4
        25        26        27        48     9        0.000000        0.014463         1
        25        26        27        48     9      180.000000       14.848276         2
        25        26        27        48     9        0.000000       -0.677441         3
        25        26        27        48     9      180.000000        0.101903         4
        26        25        24        45     9        0.000000       -0.019885         1
        26        25        24        45     9      180.000000       14.972931         2
        26        25        24        45     9        0.000000       -0.621918         3
        26        25        24        45     9      180.000000        0.048425         4
        27        22         1        32     9        0.000000       -0.664806         1
        27        22         1        32     9      180.000000        3.362332         2
        27        22         1        32     9        0.000000        0.069056         3
        27        22         1        32     9      180.000000       -0.013421         4
        27        22        23        28     9        0.000000       -0.308255         1
        27        22        23        28     9      180.000000       10.871220         2
        27        22        23        28     9        0.000000        0.036146         3
        27        22        23        28     9      180.000000       -0.346324         4
        27        26        25        46     9        0.000000        0.135342         1
        27        26        25        46     9      180.000000       13.622021         2
        27        26        25        46     9        0.000000       -0.646515         3
        27        26        25        46     9      180.000000        0.109946         4
        28        23        24        45     9        0.000000        0.227135         1
        28        23        24        45     9      180.000000       12.189977         2
        28        23        24        45     9        0.000000       -0.182664         3
        28        23        24        45     9      180.000000        0.018473         4
        30        28        29        49     9        0.000000       -0.019615         1
        30        28        29        49     9      180.000000       -0.057446         2
        30        28        29        49     9        0.000000        0.355414         3
        30        28        29        49     9      180.000000        0.004280         4
        30        28        29        50     9        0.000000       -0.019615         1
        30        28        29        50     9      180.000000       -0.057446         2
        30        28        29        50     9        0.000000        0.355414         3
        30        28        29        50     9      180.000000        0.004280         4
        30        28        29        51     9        0.000000       -0.019615         1
        30        28        29        51     9      180.000000       -0.057446         2
        30        28        29        51     9        0.000000        0.355414         3
        30        28        29        51     9      180.000000        0.004280         4
        31        28        29        49     9        0.000000       -0.019615         1
        31        28        29        49     9      180.000000       -0.057446         2
        31        28        29        49     9        0.000000        0.355414         3
        31        28        29        49     9      180.000000        0.004280         4
        31        28        29        50     9        0.000000       -0.019615         1
        31        28        29        50     9      180.000000       -0.057446         2
        31        28        29        50     9        0.000000        0.355414         3
        31        28        29        50     9      180.000000        0.004280         4
        31        28        29        51     9        0.000000       -0.019615         1
        31        28        29        51     9      180.000000       -0.057446         2
        31        28        29        51     9        0.000000        0.355414         3
        31        28        29        51     9      180.000000        0.004280         4
        35         9        10        36     9        0.000000       -0.056311         1
        35         9        10        36     9      180.000000       12.658448         2
        35         9        10        36     9        0.000000       -0.675856         3
        35         9        10        36     9      180.000000        0.271777         4
        38        14        15        39     9        0.000000        0.003503         1
        38        14        15        39     9      180.000000       10.860043         2
        38        14        15        39     9        0.000000       -0.481073         3
        38        14        15        39     9      180.000000        0.121267         4
        43        19        20        44     9        0.000000       -0.431714         1
        43        19        20        44     9      180.000000        6.869068         2
        43        19        20        44     9        0.000000       -0.569257         3
        43        19        20        44     9      180.000000        0.186659         4
        45        24        25        46     9        0.000000       -0.061792         1
        45        24        25        46     9      180.000000       12.242912         2
        45        24        25        46     9        0.000000       -0.741274         3
        45        24        25        46     9      180.000000        0.251886         4
        46        25        26        47     9        0.000000       -0.112987         1
        46        25        26        47     9      180.000000       10.940491         2
        46        25        26        47     9        0.000000       -0.431826         3
        46        25        26        47     9      180.000000        0.187826         4
        47        26        27        48     9        0.000000       -0.101227         1
        47        26        27        48     9      180.000000       12.453752         2
        47        26        27        48     9        0.000000       -0.728962         3
        47        26        27        48     9      180.000000        0.246100         4

[ dihedrals ] ; impropers
;       ai        aj        ak        al funct           phase               k        pn
        19        18        20        43     4      180.000000        4.162411         2
        19        20        43        18     4      180.000000        4.162411         2
        19        43        18        20     4      180.000000        4.162411         2
        20        19        21        44     4      180.000000        4.409855         2
        20        21        44        19     4      180.000000        4.409855         2
        20        44        19        21     4      180.000000        4.409855         2
        24        23        25        45     4      180.000000        0.510557         2
        24        25        45        23     4      180.000000        0.510557         2
        24        45        23        25     4      180.000000        0.510557         2
        26        25        27        47     4      180.000000        0.850273         2
        26        27        47        25     4      180.000000        0.850273         2
        26        47        25        27     4      180.000000        0.850273         2

[ pairs ]
;       ai        aj funct
         1         4     1
         1         6     1
         1        24     1
         1        26     1
         1        28     1
         1        33     1
         1        34     1
         1        48     1
         2         5     1
         2         8     1
         2        18     1
         2        23     1
         2        27     1
         3         6     1
         3         9     1
         3        13     1
         3        21     1
         3        22     1
         3        32     1
         3        34     1
         4         7     1
         4        10     1
         4        12     1
         4        18     1
         4        20     1
         4        35     1
         4        37     1
         5         9     1
         5        13     1
         5        19     1
         5        33     1
         5        34     1
         5        44     1
         6         8     1
         6        20     1
         6        43     1
         7        19     1
         7        21     1
         7        22     1
         7        32     1
         7        33     1
         8        11     1
         8        16     1
         8        21     1
         8        33     1
         8        36     1
         9        12     1
         9        14     1
         9        37     1
        10        13     1
        10        15     1
        10        16     1
        10        38     1
        11        17     1
        11        35     1
        11        37     1
        11        39     1
        12        36     1
        12        38     1
        12        39     1
        12        40     1
        12        41     1
        12        42     1
        13        14     1
        13        15     1
        13        17     1
        13        35     1
        14        17     1
        14        36     1
        15        40     1
        15        41     1
        15        42     1
        16        37     1
        16        38     1
        17        39     1
        18        21     1
        18        34     1
        18        44     1
        21        43     1
        22        25     1
        22        29     1
        22        30     1
        22        31     1
        22        45     1
        22        47     1
        23        26     1
        23        32     1
        23        46     1
        23        48     1
        23        49     1
        23        50     1
        23        51     1
        24        27     1
        24        29     1
        24        30     1
        24        31     1
        24        47     1
        25        28     1
        25        48     1
        26        45     1
        27        28     1
        27        32     1
        27        46     1
        28        45     1
        30        49     1
        30        50     1
        30        51     1
        31        49     1
        31        50     1
        31        51     1
        35        36     1
        38        39     1
        43        44     1
        45        46     1
        46        47     1
        47        48     1
