; ITP file created by ByteFF-ML, 2026-02-21 07:44:26.252668

[ atomtypes ]
;name           bonded.type        at.num        mass        charge   ptype           sigma         epsilon
 c0bf                                   6      0.0000       0.00000       A     3.31696e-01     4.13508e-01
 c1bf                                   6      0.0000       0.00000       A     3.31487e-01     4.11258e-01
 c2bf                                   6      0.0000       0.00000       A     3.31588e-01     4.14304e-01
 c3bf                                   6      0.0000       0.00000       A     3.31169e-01     4.10704e-01
 c4bf                                   6      0.0000       0.00000       A     3.31581e-01     4.11588e-01
 c5bf                                   6      0.0000       0.00000       A     3.31387e-01     4.12836e-01
 n6bf                                   7      0.0000       0.00000       A     3.38456e-01     3.92772e-01
 n7bf                                   7      0.0000       0.00000       A     3.38246e-01     3.93082e-01
 c8bf                                   6      0.0000       0.00000       A     3.31514e-01     4.13144e-01
 c9bf                                   6      0.0000       0.00000       A     3.31562e-01     4.13392e-01
 n10bf                                  7      0.0000       0.00000       A     3.27640e-01     6.46887e-01
 c11bf                                  6      0.0000       0.00000       A     3.31420e-01     4.09858e-01
 c12bf                                  6      0.0000       0.00000       A     3.31417e-01     4.13037e-01
 c13bf                                  6      0.0000       0.00000       A     3.31516e-01     4.13372e-01
 c14bf                                  6      0.0000       0.00000       A     3.31421e-01     4.12921e-01
 c15bf                                  6      0.0000       0.00000       A     3.31536e-01     4.12022e-01
 c16bf                                  6      0.0000       0.00000       A     3.31301e-01     4.13151e-01
 c17bf                                  6      0.0000       0.00000       A     3.31466e-01     4.13157e-01
 c18bf                                  6      0.0000       0.00000       A     3.31464e-01     4.12298e-01
 n19bf                                  7      0.0000       0.00000       A     3.20674e-01     8.54162e-01
 c20bf                                  6      0.0000       0.00000       A     3.31434e-01     4.13203e-01
 c21bf                                  6      0.0000       0.00000       A     3.39830e-01     4.50430e-01
 c22bf                                  6      0.0000       0.00000       A     3.31441e-01     4.10434e-01
 c23bf                                  6      0.0000       0.00000       A     3.31354e-01     4.12988e-01
 c24bf                                  6      0.0000       0.00000       A     3.31449e-01     4.12111e-01
 n25bf                                  7      0.0000       0.00000       A     3.38323e-01     3.92507e-01
 c26bf                                  6      0.0000       0.00000       A     3.31548e-01     4.14659e-01
 c27bf                                  6      0.0000       0.00000       A     3.31397e-01     4.11417e-01
 n28bf                                  7      0.0000       0.00000       A     3.36061e-01     3.56452e-01
 o29bf                                  8      0.0000       0.00000       A     3.04770e-01     6.10718e-01
 h30bf                                  1      0.0000       0.00000       A     2.62399e-01     6.76733e-02
 h31bf                                  1      0.0000       0.00000       A     2.62381e-01     6.75967e-02
 h32bf                                  1      0.0000       0.00000       A     2.53506e-01     6.72855e-02
 h33bf                                  1      0.0000       0.00000       A     2.53506e-01     6.72855e-02
 h34bf                                  1      0.0000       0.00000       A     1.11170e-01     4.01763e-02
 h35bf                                  1      0.0000       0.00000       A     2.62523e-01     6.73238e-02
 h36bf                                  1      0.0000       0.00000       A     2.62498e-01     6.69232e-02
 h37bf                                  1      0.0000       0.00000       A     2.62405e-01     6.76334e-02
 h38bf                                  1      0.0000       0.00000       A     2.62695e-01     6.74962e-02
 h39bf                                  1      0.0000       0.00000       A     2.53862e-01     6.73015e-02
 h40bf                                  1      0.0000       0.00000       A     2.41969e-01     8.74279e-02
 h41bf                                  1      0.0000       0.00000       A     2.41969e-01     8.74279e-02
 h42bf                                  1      0.0000       0.00000       A     2.41969e-01     8.74279e-02
 h43bf                                  1      0.0000       0.00000       A     2.62462e-01     6.69184e-02
 h44bf                                  1      0.0000       0.00000       A     2.53673e-01     6.71626e-02
 h45bf                                  1      0.0000       0.00000       A     2.53607e-01     6.78904e-02
 h46bf                                  1      0.0000       0.00000       A     1.10424e-01     4.11499e-02
 h47bf                                  1      0.0000       0.00000       A     1.10424e-01     4.11499e-02

[ moleculetype ]
;name             nrexcl
 34                    3

[ atoms ]
;       nr            type      resi   res      atom      cgnr      charge          mass ; qtot
         1            c0bf         1   UNL        c0         1    -0.14224       12.0110 ; qtot   -0.142
         2            c1bf         1   UNL        c1         2     0.30918       12.0110 ; qtot    0.167
         3            c2bf         1   UNL        c2         3    -0.13159       12.0110 ; qtot    0.035
         4            c3bf         1   UNL        c3         4     0.02972       12.0110 ; qtot    0.065
         5            c4bf         1   UNL        c4         5     0.21965       12.0110 ; qtot    0.285
         6            c5bf         1   UNL        c5         6     0.25847       12.0110 ; qtot    0.543
         7            n6bf         1   UNL        n6         7    -0.62285       14.0070 ; qtot   -0.080
         8            n7bf         1   UNL        n7         8    -0.62228       14.0070 ; qtot   -0.702
         9            c8bf         1   UNL        c8         9     0.29317       12.0110 ; qtot   -0.409
        10            c9bf         1   UNL        c9        10     0.29405       12.0110 ; qtot   -0.115
        11           n10bf         1   UNL       n10        11    -0.96934       14.0070 ; qtot   -1.084
        12           c11bf         1   UNL       c11        12    -0.02826       12.0110 ; qtot   -1.112
        13           c12bf         1   UNL       c12        13    -0.11542       12.0110 ; qtot   -1.228
        14           c13bf         1   UNL       c13        14    -0.07162       12.0110 ; qtot   -1.299
        15           c14bf         1   UNL       c14        15    -0.09246       12.0110 ; qtot   -1.392
        16           c15bf         1   UNL       c15        16    -0.04872       12.0110 ; qtot   -1.441
        17           c16bf         1   UNL       c16        17    -0.10478       12.0110 ; qtot   -1.545
        18           c17bf         1   UNL       c17        18    -0.24093       12.0110 ; qtot   -1.786
        19           c18bf         1   UNL       c18        19    -0.14808       12.0110 ; qtot   -1.934
        20           n19bf         1   UNL       n19        20    -0.10934       14.0070 ; qtot   -2.044
        21           c20bf         1   UNL       c20        21     0.30712       12.0110 ; qtot   -1.737
        22           c21bf         1   UNL       c21        22     0.06426       12.0110 ; qtot   -1.672
        23           c22bf         1   UNL       c22        23    -0.20065       12.0110 ; qtot   -1.873
        24           c23bf         1   UNL       c23        24    -0.10407       12.0110 ; qtot   -1.977
        25           c24bf         1   UNL       c24        25     0.29422       12.0110 ; qtot   -1.683
        26           n25bf         1   UNL       n25        26    -0.60983       14.0070 ; qtot   -2.293
        27           c26bf         1   UNL       c26        27     0.27175       12.0110 ; qtot   -2.021
        28           c27bf         1   UNL       c27        28     0.60505       12.0110 ; qtot   -1.416
        29           n28bf         1   UNL       n28        29    -0.57254       14.0070 ; qtot   -1.988
        30           o29bf         1   UNL       o29        30    -0.61309       15.9990 ; qtot   -2.601
        31           h30bf         1   UNL       h30        31     0.14328        1.0080 ; qtot   -2.458
        32           h31bf         1   UNL       h31        32     0.12730        1.0080 ; qtot   -2.331
        33           h32bf         1   UNL       h32        33     0.03158        1.0080 ; qtot   -2.299
        34           h33bf         1   UNL       h33        34     0.03160        1.0080 ; qtot   -2.268
        35           h34bf         1   UNL       h34        35     0.51787        1.0080 ; qtot   -1.750
        36           h35bf         1   UNL       h35        36     0.12044        1.0080 ; qtot   -1.629
        37           h36bf         1   UNL       h36        37     0.11787        1.0080 ; qtot   -1.512
        38           h37bf         1   UNL       h37        38     0.12602        1.0080 ; qtot   -1.385
        39           h38bf         1   UNL       h38        39     0.20439        1.0080 ; qtot   -1.181
        40           h39bf         1   UNL       h39        40     0.20730        1.0080 ; qtot   -0.974
        41           h40bf         1   UNL       h40        41     0.04880        1.0080 ; qtot   -0.925
        42           h41bf         1   UNL       h41        42     0.04880        1.0080 ; qtot   -0.876
        43           h42bf         1   UNL       h42        43     0.04880        1.0080 ; qtot   -0.827
        44           h43bf         1   UNL       h43        44     0.14015        1.0080 ; qtot   -0.687
        45           h44bf         1   UNL       h44        45     0.03237        1.0080 ; qtot   -0.655
        46           h45bf         1   UNL       h45        46     0.03415        1.0080 ; qtot   -0.621
        47           h46bf         1   UNL       h46        47     0.31037        1.0080 ; qtot   -0.310
        48           h47bf         1   UNL       h47        48     0.31036        1.0080 ; qtot   -0.000

[ bonds ]
;       ai        aj funct               r               k
         1         2     1        0.138649   325105.584766
         1         6     1        0.141521   284459.010498
         1        31     1        0.108434   324306.120020
         2         3     1        0.142377   250913.999902
         2        11     1        0.140219   263225.976611
         3         4     1        0.138628   330545.857324
         3        32     1        0.108420   321509.091504
         4         5     1        0.143443   237124.982324
         4        12     1        0.148398   213063.534814
         5         6     1        0.143386   223579.461084
         5         8     1        0.136378   268382.250977
         6         7     1        0.136675   270922.835840
         7        10     1        0.131846   380187.239941
         8         9     1        0.131881   374103.202393
         9        10     1        0.142216   238192.510107
         9        33     1        0.108820   315940.162988
        10        34     1        0.108836   315483.763770
        11        21     1        0.139054   280946.738623
        11        35     1        0.101825   394088.314355
        12        13     1        0.142023   258564.560352
        12        17     1        0.140177   290488.679541
        13        14     1        0.138890   334507.684473
        13        36     1        0.108507   320582.503027
        14        15     1        0.140748   301486.669824
        14        37     1        0.108659   317447.771777
        15        16     1        0.142620   240876.690137
        15        18     1        0.143732   250154.730566
        16        17     1        0.139784   309529.863330
        16        20     1        0.138337   262427.661035
        17        38     1        0.108455   321154.636426
        18        19     1        0.137637   378975.121045
        18        39     1        0.108169   334460.823877
        19        20     1        0.138674   275419.129150
        19        40     1        0.108218   333100.385449
        20        22     1        0.145037   228862.935791
        21        23     1        0.141937   255573.526416
        21        27     1        0.141504   256730.459619
        22        41     1        0.109354   299824.280615
        22        42     1        0.109354   299824.280615
        22        43     1        0.109354   299824.280615
        23        24     1        0.140221   300703.267920
        23        28     1        0.149832   176426.759155
        24        25     1        0.139459   301302.470654
        24        44     1        0.108501   323457.240967
        25        26     1        0.134001   313857.943701
        25        45     1        0.108751   317618.921484
        26        27     1        0.133288   340348.327832
        27        46     1        0.108618   320087.644922
        28        29     1        0.137324   305592.015527
        28        30     1        0.123713   578734.587988
        29        47     1        0.101260   423336.706299
        29        48     1        0.101260   423336.706299

[ angles ]
;       ai        aj        ak funct           theta             cth
         1         2         3     1      119.317406      643.691188
         1         2        11     1      121.320412      494.765821
         1         6         5     1      120.564919      663.113437
         1         6         7     1      118.281189      431.308051
         2         1         6     1      120.281448      538.653737
         2         1        31     1      121.913773      423.839340
         2         3         4     1      122.428101      712.325298
         2         3        32     1      118.444168      447.150763
         2        11        21     1      126.892960      412.304803
         2        11        35     1      116.066177      417.988916
         3         2        11     1      119.329468      535.680069
         3         4         5     1      118.274681      534.012463
         3         4        12     1      119.145592      472.282120
         4         3        32     1      118.685989      415.785479
         4         5         6     1      118.941978      697.082325
         4         5         8     1      120.418312      431.095455
         4        12        13     1      119.991798      509.193426
         4        12        17     1      120.170876      423.701025
         5         4        12     1      122.735001      444.446511
         5         6         7     1      121.322975      705.924740
         5         8         9     1      117.611557      602.010986
         6         1        31     1      117.843239      439.647833
         6         5         8     1      120.208412      782.715594
         6         7        10     1      116.661819      559.934704
         7        10         9     1      122.299545      738.442163
         7        10        34     1      117.380966      342.428057
         8         9        10     1      122.256546      732.863901
         8         9        33     1      117.339157      362.478902
         9        10        34     1      120.145851      429.987368
        10         9        33     1      120.142014      430.475797
        11        21        23     1      121.071045      579.301282
        11        21        27     1      122.208984      596.722634
        12        13        14     1      121.801224      641.863880
        12        13        36     1      118.687279      420.254569
        12        17        16     1      118.398575      751.074478
        12        17        38     1      120.057411      403.248833
        13        12        17     1      119.636536      629.940923
        13        14        15     1      119.249611      721.006127
        13        14        37     1      120.280472      430.417668
        14        13        36     1      119.736038      414.498728
        14        15        16     1      118.372032      712.683903
        14        15        18     1      134.867035      476.020082
        15        14        37     1      120.565613      437.227138
        15        16        17     1      122.437134      653.014148
        15        16        20     1      107.846840      167.360000
        15        18        19     1      106.844933      436.901987
        15        18        39     1      127.302994      394.236308
        16        15        18     1      106.661888      331.741160
        16        17        38     1      121.695938      415.416116
        16        20        19     1      108.453735      401.502669
        16        20        22     1      125.119263      518.958401
        17        16        20     1      129.874054      438.808396
        18        19        20     1      110.138916      213.458281
        18        19        40     1      129.977615      347.479457
        19        18        39     1      125.794395      397.722794
        19        20        22     1      126.406151      427.630292
        20        19        40     1      120.093422      439.489056
        20        22        41     1      110.346970      460.989003
        20        22        42     1      110.346970      460.989003
        20        22        43     1      110.346970      460.989003
        21        11        35     1      114.137283      444.382125
        21        23        24     1      118.035110      813.496877
        21        23        28     1      121.822105      702.397044
        21        27        26     1      124.199997      778.264029
        21        27        46     1      119.474304      413.796840
        23        21        27     1      117.098160      695.993806
        23        24        25     1      119.999657      673.089508
        23        24        44     1      120.099953      388.359581
        23        28        29     1      116.464539      528.809629
        23        28        30     1      122.104027      512.656130
        24        23        28     1      120.382553      544.142109
        24        25        26     1      122.884537      732.901057
        24        25        45     1      120.517349      414.440695
        25        24        44     1      120.044601      437.942433
        25        26        27     1      117.853073      677.141226
        26        25        45     1      116.427635      362.245205
        26        27        46     1      116.520615      335.252768
        28        29        47     1      117.735275      447.984039
        28        29        48     1      117.735275      447.984039
        29        28        30     1      120.879837      680.117959
        41        22        42     1      108.719864      352.472281
        41        22        43     1      108.719864      352.472281
        42        22        43     1      108.719864      352.472281
        47        29        48     1      117.099060      317.421386

[ dihedrals ] ; propers for gromacs 4.5 or higher, use funct 9
;       ai        aj        ak        al funct           phase               k        pn
         1         2         3         4     9        0.000000        0.153931         1
         1         2         3         4     9      180.000000       14.203862         2
         1         2         3         4     9        0.000000       -0.825299         3
         1         2         3         4     9      180.000000       -0.237809         4
         1         2         3        32     9        0.000000       -0.053979         1
         1         2         3        32     9      180.000000       11.894037         2
         1         2         3        32     9        0.000000       -0.424580         3
         1         2         3        32     9      180.000000        0.111321         4
         1         2        11        21     9        0.000000       -0.214402         1
         1         2        11        21     9      180.000000        3.863123         2
         1         2        11        21     9        0.000000       -0.310248         3
         1         2        11        21     9      180.000000        0.088135         4
         1         2        11        35     9        0.000000       -0.539521         1
         1         2        11        35     9      180.000000        3.527040         2
         1         2        11        35     9        0.000000       -0.140303         3
         1         2        11        35     9      180.000000        0.071904         4
         1         6         5         4     9        0.000000        0.151864         1
         1         6         5         4     9      180.000000       11.489532         2
         1         6         5         4     9        0.000000       -0.456158         3
         1         6         5         4     9      180.000000       -0.212062         4
         1         6         5         8     9        0.000000        0.340548         1
         1         6         5         8     9      180.000000       11.179590         2
         1         6         5         8     9        0.000000       -0.065208         3
         1         6         5         8     9      180.000000       -0.244500         4
         1         6         7        10     9        0.000000       -0.023334         1
         1         6         7        10     9      180.000000       18.424194         2
         1         6         7        10     9        0.000000        0.154347         3
         1         6         7        10     9      180.000000       -0.275637         4
         2         1         6         5     9        0.000000       -0.523753         1
         2         1         6         5     9      180.000000       13.671786         2
         2         1         6         5     9        0.000000       -0.963583         3
         2         1         6         5     9      180.000000       -0.184911         4
         2         1         6         7     9        0.000000       -0.325916         1
         2         1         6         7     9      180.000000       13.970533         2
         2         1         6         7     9        0.000000       -0.438261         3
         2         1         6         7     9      180.000000       -0.377160         4
         2         3         4         5     9        0.000000       -0.229761         1
         2         3         4         5     9      180.000000       19.376495         2
         2         3         4         5     9        0.000000       -1.536881         3
         2         3         4         5     9      180.000000       -0.311179         4
         2         3         4        12     9        0.000000        0.334442         1
         2         3         4        12     9      180.000000       19.308999         2
         2         3         4        12     9        0.000000        0.017704         3
         2         3         4        12     9      180.000000       -0.795765         4
         2        11        21        23     9        0.000000        0.136103         1
         2        11        21        23     9      180.000000        4.058603         2
         2        11        21        23     9        0.000000       -0.161901         3
         2        11        21        23     9      180.000000       -0.018050         4
         2        11        21        27     9        0.000000        1.691251         1
         2        11        21        27     9      180.000000        2.639180         2
         2        11        21        27     9        0.000000       -0.366905         3
         2        11        21        27     9      180.000000        0.178600         4
         3         2         1         6     9        0.000000       -0.170562         1
         3         2         1         6     9      180.000000       17.332242         2
         3         2         1         6     9        0.000000       -1.160417         3
         3         2         1         6     9      180.000000       -0.423205         4
         3         2         1        31     9        0.000000        0.067120         1
         3         2         1        31     9      180.000000       13.319795         2
         3         2         1        31     9        0.000000       -0.352803         3
         3         2         1        31     9      180.000000        0.135579         4
         3         2        11        21     9        0.000000       -0.043421         1
         3         2        11        21     9      180.000000        3.755561         2
         3         2        11        21     9        0.000000        0.151575         3
         3         2        11        21     9      180.000000        0.078079         4
         3         2        11        35     9        0.000000       -0.591342         1
         3         2        11        35     9      180.000000        3.315123         2
         3         2        11        35     9        0.000000        0.021496         3
         3         2        11        35     9      180.000000        0.104938         4
         3         4         5         6     9        0.000000       -0.407537         1
         3         4         5         6     9      180.000000       10.542520         2
         3         4         5         6     9        0.000000       -0.867662         3
         3         4         5         6     9      180.000000        0.040791         4
         3         4         5         8     9        0.000000        0.050013         1
         3         4         5         8     9      180.000000        9.582071         2
         3         4         5         8     9        0.000000       -0.305997         3
         3         4         5         8     9      180.000000       -0.087278         4
         3         4        12        13     9        0.000000       -0.479631         1
         3         4        12        13     9      180.000000        4.596342         2
         3         4        12        13     9        0.000000       -0.037898         3
         3         4        12        13     9      180.000000        0.664984         4
         3         4        12        17     9        0.000000       -0.281079         1
         3         4        12        17     9      180.000000        4.548832         2
         3         4        12        17     9        0.000000        0.184036         3
         3         4        12        17     9      180.000000        0.569057         4
         4         3         2        11     9        0.000000        0.217994         1
         4         3         2        11     9      180.000000       15.715675         2
         4         3         2        11     9        0.000000        0.049754         3
         4         3         2        11     9      180.000000       -0.412111         4
         4         5         6         7     9        0.000000       -0.330478         1
         4         5         6         7     9      180.000000       10.070724         2
         4         5         6         7     9        0.000000        0.089420         3
         4         5         6         7     9      180.000000       -0.272537         4
         4         5         8         9     9        0.000000        0.601589         1
         4         5         8         9     9      180.000000       16.401411         2
         4         5         8         9     9        0.000000        0.383469         3
         4         5         8         9     9      180.000000       -0.372567         4
         4        12        13        14     9        0.000000        0.279806         1
         4        12        13        14     9      180.000000       14.116177         2
         4        12        13        14     9        0.000000       -0.110734         3
         4        12        13        14     9      180.000000       -0.148110         4
         4        12        13        36     9        0.000000       -0.010357         1
         4        12        13        36     9      180.000000       12.522140         2
         4        12        13        36     9        0.000000       -0.209991         3
         4        12        13        36     9      180.000000        0.141486         4
         4        12        17        16     9        0.000000        0.136673         1
         4        12        17        16     9      180.000000       16.945793         2
         4        12        17        16     9        0.000000        0.082086         3
         4        12        17        16     9      180.000000       -0.583671         4
         4        12        17        38     9        0.000000       -0.030767         1
         4        12        17        38     9      180.000000       12.702616         2
         4        12        17        38     9        0.000000       -0.105191         3
         4        12        17        38     9      180.000000        0.147513         4
         5         4         3        32     9        0.000000        0.197520         1
         5         4         3        32     9      180.000000       15.644651         2
         5         4         3        32     9        0.000000       -0.327288         3
         5         4         3        32     9      180.000000        0.175225         4
         5         4        12        13     9        0.000000       -0.007630         1
         5         4        12        13     9      180.000000        4.221758         2
         5         4        12        13     9        0.000000       -0.027697         3
         5         4        12        13     9      180.000000        0.767394         4
         5         4        12        17     9        0.000000       -0.418488         1
         5         4        12        17     9      180.000000        4.256820         2
         5         4        12        17     9        0.000000       -0.213207         3
         5         4        12        17     9      180.000000        0.830008         4
         5         6         1        31     9        0.000000       -0.170721         1
         5         6         1        31     9      180.000000       10.545502         2
         5         6         1        31     9        0.000000       -0.262492         3
         5         6         1        31     9      180.000000       -0.003795         4
         5         6         7        10     9        0.000000       -0.107916         1
         5         6         7        10     9      180.000000       16.440884         2
         5         6         7        10     9        0.000000        0.043441         3
         5         6         7        10     9      180.000000       -0.231039         4
         5         8         9        10     9        0.000000        0.103245         1
         5         8         9        10     9      180.000000       25.050131         2
         5         8         9        10     9        0.000000       -0.948796         3
         5         8         9        10     9      180.000000       -0.159021         4
         5         8         9        33     9        0.000000        0.727425         1
         5         8         9        33     9      180.000000       22.903268         2
         5         8         9        33     9        0.000000        0.106514         3
         5         8         9        33     9      180.000000       -0.552430         4
         6         1         2        11     9        0.000000        0.253643         1
         6         1         2        11     9      180.000000       19.765360         2
         6         1         2        11     9        0.000000       -0.037795         3
         6         1         2        11     9      180.000000       -0.786725         4
         6         5         4        12     9        0.000000        0.119155         1
         6         5         4        12     9      180.000000       12.677563         2
         6         5         4        12     9        0.000000       -0.023199         3
         6         5         4        12     9      180.000000       -0.468567         4
         6         5         8         9     9        0.000000        0.188120         1
         6         5         8         9     9      180.000000       16.793790         2
         6         5         8         9     9        0.000000       -0.050993         3
         6         5         8         9     9      180.000000       -0.239062         4
         6         7        10         9     9        0.000000       -0.161990         1
         6         7        10         9     9      180.000000       25.805864         2
         6         7        10         9     9        0.000000       -0.989158         3
         6         7        10         9     9      180.000000       -0.201960         4
         6         7        10        34     9        0.000000        0.808513         1
         6         7        10        34     9      180.000000       23.535886         2
         6         7        10        34     9        0.000000        0.064004         3
         6         7        10        34     9      180.000000       -0.475717         4
         7         6         1        31     9        0.000000        0.016940         1
         7         6         1        31     9      180.000000       11.980067         2
         7         6         1        31     9        0.000000       -0.349905         3
         7         6         1        31     9      180.000000        0.012863         4
         7         6         5         8     9        0.000000        0.159900         1
         7         6         5         8     9      180.000000       11.086216         2
         7         6         5         8     9        0.000000        0.160518         3
         7         6         5         8     9      180.000000       -0.397158         4
         7        10         9         8     9        0.000000       -0.713203         1
         7        10         9         8     9      180.000000       11.742392         2
         7        10         9         8     9        0.000000       -0.552181         3
         7        10         9         8     9      180.000000       -0.521535         4
         7        10         9        33     9        0.000000       -0.199022         1
         7        10         9        33     9      180.000000        9.267615         2
         7        10         9        33     9        0.000000       -0.318099         3
         7        10         9        33     9      180.000000       -0.090079         4
         8         5         4        12     9        0.000000       -0.537272         1
         8         5         4        12     9      180.000000       12.390915         2
         8         5         4        12     9        0.000000       -0.149751         3
         8         5         4        12     9      180.000000       -0.482238         4
         8         9        10        34     9        0.000000       -0.026031         1
         8         9        10        34     9      180.000000        9.508286         2
         8         9        10        34     9        0.000000       -0.255749         3
         8         9        10        34     9      180.000000       -0.134502         4
        11         2         1        31     9        0.000000        0.035800         1
        11         2         1        31     9      180.000000       15.284728         2
        11         2         1        31     9        0.000000       -0.058057         3
        11         2         1        31     9      180.000000        0.199967         4
        11         2         3        32     9        0.000000        0.003041         1
        11         2         3        32     9      180.000000       14.156489         2
        11         2         3        32     9        0.000000       -0.113476         3
        11         2         3        32     9      180.000000        0.183144         4
        11        21        23        24     9        0.000000       -0.170029         1
        11        21        23        24     9      180.000000       16.245410         2
        11        21        23        24     9        0.000000        0.074234         3
        11        21        23        24     9      180.000000       -0.661730         4
        11        21        23        28     9        0.000000       -0.437839         1
        11        21        23        28     9      180.000000       13.594483         2
        11        21        23        28     9        0.000000        0.066924         3
        11        21        23        28     9      180.000000       -0.657618         4
        11        21        27        26     9        0.000000        0.004607         1
        11        21        27        26     9      180.000000       16.919632         2
        11        21        27        26     9        0.000000        0.144075         3
        11        21        27        26     9      180.000000       -0.644903         4
        11        21        27        46     9        0.000000       -0.518377         1
        11        21        27        46     9      180.000000       14.706396         2
        11        21        27        46     9        0.000000       -0.217376         3
        11        21        27        46     9      180.000000        0.122974         4
        12         4         3        32     9        0.000000        0.009108         1
        12         4         3        32     9      180.000000       14.924329         2
        12         4         3        32     9        0.000000       -0.149141         3
        12         4         3        32     9      180.000000        0.103227         4
        12        13        14        15     9        0.000000       -0.118288         1
        12        13        14        15     9      180.000000       21.128618         2
        12        13        14        15     9        0.000000       -1.641639         3
        12        13        14        15     9      180.000000       -0.503143         4
        12        13        14        37     9        0.000000        0.009880         1
        12        13        14        37     9      180.000000       15.243821         2
        12        13        14        37     9        0.000000       -0.469502         3
        12        13        14        37     9      180.000000        0.094908         4
        12        17        16        15     9        0.000000       -0.017252         1
        12        17        16        15     9      180.000000       17.488271         2
        12        17        16        15     9        0.000000       -1.598856         3
        12        17        16        15     9      180.000000       -0.379347         4
        12        17        16        20     9        0.000000        0.196074         1
        12        17        16        20     9      180.000000       15.844593         2
        12        17        16        20     9        0.000000       -0.300946         3
        12        17        16        20     9      180.000000       -0.376237         4
        13        12        17        16     9        0.000000       -0.183449         1
        13        12        17        16     9      180.000000       20.850224         2
        13        12        17        16     9        0.000000       -1.683316         3
        13        12        17        16     9      180.000000       -0.513113         4
        13        12        17        38     9        0.000000        0.060950         1
        13        12        17        38     9      180.000000       13.908896         2
        13        12        17        38     9        0.000000       -0.456522         3
        13        12        17        38     9      180.000000        0.109681         4
        13        14        15        16     9        0.000000       -0.078279         1
        13        14        15        16     9      180.000000       19.312299         2
        13        14        15        16     9        0.000000       -2.075099         3
        13        14        15        16     9      180.000000       -0.384435         4
        13        14        15        18     9        0.000000        0.118318         1
        13        14        15        18     9      180.000000       13.391727         2
        13        14        15        18     9        0.000000       -0.511419         3
        13        14        15        18     9      180.000000       -0.145206         4
        14        13        12        17     9        0.000000       -0.065410         1
        14        13        12        17     9      180.000000       17.441544         2
        14        13        12        17     9        0.000000       -1.329842         3
        14        13        12        17     9      180.000000       -0.337279         4
        14        15        16        17     9        0.000000       -0.133893         1
        14        15        16        17     9      180.000000       10.794701         2
        14        15        16        17     9        0.000000       -1.527214         3
        14        15        16        17     9      180.000000       -0.100381         4
        14        15        16        20     9        0.000000        0.487087         1
        14        15        16        20     9      180.000000       11.126998         2
        14        15        16        20     9        0.000000       -2.247677         3
        14        15        16        20     9      180.000000       -0.106315         4
        14        15        18        19     9        0.000000        0.355092         1
        14        15        18        19     9      180.000000        4.201618         2
        14        15        18        19     9        0.000000       -0.563694         3
        14        15        18        19     9      180.000000        0.008346         4
        14        15        18        39     9        0.000000       -0.623804         1
        14        15        18        39     9      180.000000        4.278390         2
        14        15        18        39     9        0.000000       -0.168310         3
        14        15        18        39     9      180.000000        0.142292         4
        15        14        13        36     9        0.000000        0.095400         1
        15        14        13        36     9      180.000000       16.437461         2
        15        14        13        36     9        0.000000       -0.519789         3
        15        14        13        36     9      180.000000       -0.017390         4
        15        16        17        38     9        0.000000        0.110455         1
        15        16        17        38     9      180.000000       12.495681         2
        15        16        17        38     9        0.000000       -0.150764         3
        15        16        17        38     9      180.000000       -0.026669         4
        15        16        20        19     9        0.000000       -0.044930         1
        15        16        20        19     9      180.000000       21.153657         2
        15        16        20        19     9        0.000000       -5.745466         3
        15        16        20        19     9      180.000000       -0.067604         4
        15        16        20        22     9        0.000000        0.115831         1
        15        16        20        22     9      180.000000        2.619975         2
        15        16        20        22     9        0.000000        0.721152         3
        15        16        20        22     9      180.000000        0.210197         4
        15        18        19        20     9        0.000000       -0.260769         1
        15        18        19        20     9      180.000000       31.849324         2
        15        18        19        20     9        0.000000       -6.215833         3
        15        18        19        20     9      180.000000       -0.787799         4
        15        18        19        40     9        0.000000        0.028299         1
        15        18        19        40     9      180.000000       17.079476         2
        15        18        19        40     9        0.000000       -0.319769         3
        15        18        19        40     9      180.000000       -0.381525         4
        16        15        14        37     9        0.000000        0.129794         1
        16        15        14        37     9      180.000000       13.454264         2
        16        15        14        37     9        0.000000       -0.407698         3
        16        15        14        37     9      180.000000       -0.071090         4
        16        15        18        19     9        0.000000       -0.144250         1
        16        15        18        19     9      180.000000       27.856906         2
        16        15        18        19     9        0.000000       -8.906379         3
        16        15        18        19     9      180.000000       -0.172844         4
        16        15        18        39     9        0.000000        0.524513         1
        16        15        18        39     9      180.000000       10.013757         2
        16        15        18        39     9        0.000000        0.306404         3
        16        15        18        39     9      180.000000       -0.273153         4
        16        20        19        18     9        0.000000        0.071987         1
        16        20        19        18     9      180.000000       24.295210         2
        16        20        19        18     9        0.000000       -6.032990         3
        16        20        19        18     9      180.000000       -0.546083         4
        16        20        19        40     9        0.000000        1.179453         1
        16        20        19        40     9      180.000000        9.792244         2
        16        20        19        40     9        0.000000        0.433460         3
        16        20        19        40     9      180.000000       -0.227068         4
        16        20        22        41     9        0.000000       -0.029670         1
        16        20        22        41     9      180.000000        0.037189         2
        16        20        22        41     9        0.000000        0.648893         3
        16        20        22        41     9      180.000000        0.010602         4
        16        20        22        42     9        0.000000       -0.029670         1
        16        20        22        42     9      180.000000        0.037189         2
        16        20        22        42     9        0.000000        0.648893         3
        16        20        22        42     9      180.000000        0.010602         4
        16        20        22        43     9        0.000000       -0.029670         1
        16        20        22        43     9      180.000000        0.037189         2
        16        20        22        43     9        0.000000        0.648893         3
        16        20        22        43     9      180.000000        0.010602         4
        17        12        13        36     9        0.000000        0.068411         1
        17        12        13        36     9      180.000000       13.347190         2
        17        12        13        36     9        0.000000       -0.612319         3
        17        12        13        36     9      180.000000        0.142637         4
        17        16        15        18     9        0.000000        0.248175         1
        17        16        15        18     9      180.000000        9.818867         2
        17        16        15        18     9        0.000000       -1.629277         3
        17        16        15        18     9      180.000000        0.022165         4
        17        16        20        19     9        0.000000        0.500542         1
        17        16        20        19     9      180.000000        3.128844         2
        17        16        20        19     9        0.000000        0.183652         3
        17        16        20        19     9      180.000000        0.149882         4
        17        16        20        22     9        0.000000       -0.573621         1
        17        16        20        22     9      180.000000        2.163895         2
        17        16        20        22     9        0.000000       -0.138617         3
        17        16        20        22     9      180.000000        0.234159         4
        18        15        14        37     9        0.000000       -0.042378         1
        18        15        14        37     9      180.000000       10.471314         2
        18        15        14        37     9        0.000000        0.025302         3
        18        15        14        37     9      180.000000        0.084200         4
        18        15        16        20     9        0.000000        0.328899         1
        18        15        16        20     9      180.000000       18.442128         2
        18        15        16        20     9        0.000000       -5.909619         3
        18        15        16        20     9      180.000000       -0.307641         4
        18        19        20        22     9        0.000000        0.366988         1
        18        19        20        22     9      180.000000        4.347227         2
        18        19        20        22     9        0.000000        0.693744         3
        18        19        20        22     9      180.000000        0.283870         4
        19        20        22        41     9        0.000000       -0.051100         1
        19        20        22        41     9      180.000000       -0.000828         2
        19        20        22        41     9        0.000000        0.314565         3
        19        20        22        41     9      180.000000        0.005469         4
        19        20        22        42     9        0.000000       -0.051100         1
        19        20        22        42     9      180.000000       -0.000828         2
        19        20        22        42     9        0.000000        0.314565         3
        19        20        22        42     9      180.000000        0.005469         4
        19        20        22        43     9        0.000000       -0.051100         1
        19        20        22        43     9      180.000000       -0.000828         2
        19        20        22        43     9        0.000000        0.314565         3
        19        20        22        43     9      180.000000        0.005469         4
        20        16        17        38     9        0.000000        0.216517         1
        20        16        17        38     9      180.000000       11.255694         2
        20        16        17        38     9        0.000000       -0.046908         3
        20        16        17        38     9      180.000000        0.106758         4
        20        19        18        39     9        0.000000       -0.078116         1
        20        19        18        39     9      180.000000       15.996352         2
        20        19        18        39     9        0.000000       -0.292964         3
        20        19        18        39     9      180.000000       -0.324606         4
        21        23        24        25     9        0.000000       -0.028626         1
        21        23        24        25     9      180.000000       18.925785         2
        21        23        24        25     9        0.000000       -1.499518         3
        21        23        24        25     9      180.000000       -0.464711         4
        21        23        24        44     9        0.000000       -0.082829         1
        21        23        24        44     9      180.000000       14.543871         2
        21        23        24        44     9        0.000000       -0.450004         3
        21        23        24        44     9      180.000000       -0.022488         4
        21        23        28        29     9        0.000000        3.628350         1
        21        23        28        29     9      180.000000        2.618398         2
        21        23        28        29     9        0.000000        0.948443         3
        21        23        28        29     9      180.000000       -0.456786         4
        21        23        28        30     9        0.000000       -3.239748         1
        21        23        28        30     9      180.000000        0.839541         2
        21        23        28        30     9        0.000000       -0.063127         3
        21        23        28        30     9      180.000000        0.005235         4
        21        27        26        25     9        0.000000        0.072241         1
        21        27        26        25     9      180.000000       22.736074         2
        21        27        26        25     9        0.000000       -1.042049         3
        21        27        26        25     9      180.000000        0.225931         4
        22        20        19        40     9        0.000000       -0.501732         1
        22        20        19        40     9      180.000000        1.998448         2
        22        20        19        40     9        0.000000        0.284959         3
        22        20        19        40     9      180.000000       -0.030005         4
        23        21        11        35     9        0.000000       -0.889547         1
        23        21        11        35     9      180.000000        2.096581         2
        23        21        11        35     9        0.000000       -1.164571         3
        23        21        11        35     9      180.000000        0.094882         4
        23        21        27        26     9        0.000000       -0.035419         1
        23        21        27        26     9      180.000000       13.604828         2
        23        21        27        26     9        0.000000       -0.529760         3
        23        21        27        26     9      180.000000       -0.346854         4
        23        21        27        46     9        0.000000       -0.021271         1
        23        21        27        46     9      180.000000       11.601047         2
        23        21        27        46     9        0.000000       -0.337052         3
        23        21        27        46     9      180.000000        0.058143         4
        23        24        25        26     9        0.000000        0.122008         1
        23        24        25        26     9      180.000000       18.742289         2
        23        24        25        26     9        0.000000       -1.177087         3
        23        24        25        26     9      180.000000       -0.726915         4
        23        24        25        45     9        0.000000        0.101358         1
        23        24        25        45     9      180.000000       15.082956         2
        23        24        25        45     9        0.000000       -0.440230         3
        23        24        25        45     9      180.000000       -0.117468         4
        23        28        29        47     9        0.000000        0.586910         1
        23        28        29        47     9      180.000000        8.343796         2
        23        28        29        47     9        0.000000        0.894524         3
        23        28        29        47     9      180.000000       -1.558937         4
        23        28        29        48     9        0.000000        0.586910         1
        23        28        29        48     9      180.000000        8.343796         2
        23        28        29        48     9        0.000000        0.894524         3
        23        28        29        48     9      180.000000       -1.558937         4
        24        23        21        27     9        0.000000       -0.306312         1
        24        23        21        27     9      180.000000       13.609811         2
        24        23        21        27     9        0.000000       -0.800503         3
        24        23        21        27     9      180.000000       -0.285908         4
        24        23        28        29     9        0.000000        1.122380         1
        24        23        28        29     9      180.000000        2.060187         2
        24        23        28        29     9        0.000000        1.038755         3
        24        23        28        29     9      180.000000       -0.264159         4
        24        23        28        30     9        0.000000       -2.709891         1
        24        23        28        30     9      180.000000        0.560516         2
        24        23        28        30     9        0.000000       -0.474349         3
        24        23        28        30     9      180.000000        0.129396         4
        24        25        26        27     9        0.000000        0.100911         1
        24        25        26        27     9      180.000000       20.849186         2
        24        25        26        27     9        0.000000       -0.914265         3
        24        25        26        27     9      180.000000       -0.231967         4
        25        24        23        28     9        0.000000        0.459671         1
        25        24        23        28     9      180.000000       14.349320         2
        25        24        23        28     9        0.000000        0.186086         3
        25        24        23        28     9      180.000000       -0.390112         4
        25        26        27        46     9        0.000000        0.889239         1
        25        26        27        46     9      180.000000       21.422909         2
        25        26        27        46     9        0.000000        0.123354         3
        25        26        27        46     9      180.000000       -0.013091         4
        26        25        24        44     9        0.000000        0.045255         1
        26        25        24        44     9      180.000000       14.711125         2
        26        25        24        44     9        0.000000       -0.354051         3
        26        25        24        44     9      180.000000        0.012725         4
        27        21        11        35     9        0.000000       -1.870656         1
        27        21        11        35     9      180.000000        2.171215         2
        27        21        11        35     9        0.000000       -0.321230         3
        27        21        11        35     9      180.000000        0.093270         4
        27        21        23        28     9        0.000000       -0.323502         1
        27        21        23        28     9      180.000000       10.297035         2
        27        21        23        28     9        0.000000       -0.084143         3
        27        21        23        28     9      180.000000       -0.440322         4
        27        26        25        45     9        0.000000        1.044073         1
        27        26        25        45     9      180.000000       19.815797         2
        27        26        25        45     9        0.000000        0.261696         3
        27        26        25        45     9      180.000000       -0.447497         4
        28        23        24        44     9        0.000000        0.230384         1
        28        23        24        44     9      180.000000       11.868067         2
        28        23        24        44     9        0.000000       -0.206648         3
        28        23        24        44     9      180.000000        0.104772         4
        30        28        29        47     9        0.000000        0.779374         1
        30        28        29        47     9      180.000000       10.161180         2
        30        28        29        47     9        0.000000       -0.108751         3
        30        28        29        47     9      180.000000       -1.100590         4
        30        28        29        48     9        0.000000        0.779374         1
        30        28        29        48     9      180.000000       10.161180         2
        30        28        29        48     9        0.000000       -0.108751         3
        30        28        29        48     9      180.000000       -1.100590         4
        33         9        10        34     9        0.000000       -0.431715         1
        33         9        10        34     9      180.000000        6.869070         2
        33         9        10        34     9        0.000000       -0.569257         3
        33         9        10        34     9      180.000000        0.186659         4
        36        13        14        37     9        0.000000       -0.056311         1
        36        13        14        37     9      180.000000       12.658448         2
        36        13        14        37     9        0.000000       -0.675856         3
        36        13        14        37     9      180.000000        0.271777         4
        39        18        19        40     9        0.000000        0.003503         1
        39        18        19        40     9      180.000000       10.860043         2
        39        18        19        40     9        0.000000       -0.481074         3
        39        18        19        40     9      180.000000        0.121267         4
        44        24        25        45     9        0.000000       -0.192719         1
        44        24        25        45     9      180.000000       11.843828         2
        44        24        25        45     9        0.000000       -0.719316         3
        44        24        25        45     9      180.000000        0.255221         4

[ dihedrals ] ; impropers
;       ai        aj        ak        al funct           phase               k        pn
         9         8        10        33     4      180.000000        4.409855         2
         9        10        33         8     4      180.000000        4.409855         2
         9        33         8        10     4      180.000000        4.409855         2
        10         7         9        34     4      180.000000        4.162411         2
        10         9        34         7     4      180.000000        4.162411         2
        10        34         7         9     4      180.000000        4.162411         2
        25        24        26        45     4      180.000000        2.866992         2
        25        26        45        24     4      180.000000        2.866992         2
        25        45        24        26     4      180.000000        2.866992         2
        27        21        26        46     4      180.000000        2.491982         2
        27        26        46        21     4      180.000000        2.491982         2
        27        46        21        26     4      180.000000        2.491982         2
        28        23        29        30     4      180.000000        6.110111         2
        28        29        30        23     4      180.000000        6.110111         2
        28        30        23        29     4      180.000000        6.110111         2

[ pairs ]
;       ai        aj funct
         1         4     1
         1         8     1
         1        10     1
         1        21     1
         1        32     1
         1        35     1
         2         5     1
         2         7     1
         2        12     1
         2        23     1
         2        27     1
         3         6     1
         3         8     1
         3        13     1
         3        17     1
         3        21     1
         3        31     1
         3        35     1
         4         7     1
         4         9     1
         4        11     1
         4        14     1
         4        16     1
         4        36     1
         4        38     1
         5        10     1
         5        13     1
         5        17     1
         5        31     1
         5        32     1
         5        33     1
         6         9     1
         6        11     1
         6        12     1
         6        34     1
         7         8     1
         7        31     1
         7        33     1
         8        12     1
         8        34     1
        11        24     1
        11        26     1
        11        28     1
        11        31     1
        11        32     1
        11        46     1
        12        15     1
        12        20     1
        12        32     1
        12        37     1
        13        16     1
        13        18     1
        13        38     1
        14        17     1
        14        19     1
        14        20     1
        14        39     1
        15        22     1
        15        36     1
        15        38     1
        15        40     1
        16        37     1
        16        39     1
        16        40     1
        16        41     1
        16        42     1
        16        43     1
        17        18     1
        17        19     1
        17        22     1
        17        36     1
        18        22     1
        18        37     1
        19        41     1
        19        42     1
        19        43     1
        20        38     1
        20        39     1
        21        25     1
        21        29     1
        21        30     1
        21        44     1
        22        40     1
        23        26     1
        23        35     1
        23        45     1
        23        46     1
        23        47     1
        23        48     1
        24        27     1
        24        29     1
        24        30     1
        25        28     1
        25        46     1
        26        44     1
        27        28     1
        27        35     1
        27        45     1
        28        44     1
        30        47     1
        30        48     1
        33        34     1
        36        37     1
        39        40     1
        44        45     1
