; ITP file created by ByteFF-ML, 2026-02-21 07:44:09.452490

[ atomtypes ]
;name           bonded.type        at.num        mass        charge   ptype           sigma         epsilon
 c0bf                                   6      0.0000       0.00000       A     3.31534e-01     4.11219e-01
 c1bf                                   6      0.0000       0.00000       A     3.31588e-01     4.14303e-01
 c2bf                                   6      0.0000       0.00000       A     3.31169e-01     4.10704e-01
 c3bf                                   6      0.0000       0.00000       A     3.31581e-01     4.11588e-01
 c4bf                                   6      0.0000       0.00000       A     3.31387e-01     4.12836e-01
 c5bf                                   6      0.0000       0.00000       A     3.31696e-01     4.13508e-01
 c6bf                                   6      0.0000       0.00000       A     3.31420e-01     4.09858e-01
 c7bf                                   6      0.0000       0.00000       A     3.31301e-01     4.13151e-01
 c8bf                                   6      0.0000       0.00000       A     3.31536e-01     4.12022e-01
 c9bf                                   6      0.0000       0.00000       A     3.31421e-01     4.12921e-01
 c10bf                                  6      0.0000       0.00000       A     3.31516e-01     4.13372e-01
 c11bf                                  6      0.0000       0.00000       A     3.31417e-01     4.13037e-01
 n12bf                                  7      0.0000       0.00000       A     3.38456e-01     3.92772e-01
 c13bf                                  6      0.0000       0.00000       A     3.31562e-01     4.13392e-01
 c14bf                                  6      0.0000       0.00000       A     3.31514e-01     4.13144e-01
 n15bf                                  7      0.0000       0.00000       A     3.38246e-01     3.93082e-01
 n16bf                                  7      0.0000       0.00000       A     3.27929e-01     6.45227e-01
 c17bf                                  6      0.0000       0.00000       A     3.31466e-01     4.13157e-01
 c18bf                                  6      0.0000       0.00000       A     3.31464e-01     4.12298e-01
 n19bf                                  7      0.0000       0.00000       A     3.20674e-01     8.54162e-01
 c20bf                                  6      0.0000       0.00000       A     3.39830e-01     4.50430e-01
 c21bf                                  6      0.0000       0.00000       A     3.31581e-01     4.12886e-01
 c22bf                                  6      0.0000       0.00000       A     3.31298e-01     4.15822e-01
 c23bf                                  6      0.0000       0.00000       A     3.31194e-01     4.12903e-01
 c24bf                                  6      0.0000       0.00000       A     3.31482e-01     4.12140e-01
 n25bf                                  7      0.0000       0.00000       A     3.38344e-01     3.92967e-01
 c26bf                                  6      0.0000       0.00000       A     3.31706e-01     4.11681e-01
 s27bf                                 16      0.0000       0.00000       A     4.05645e-01     2.55729e-01
 o28bf                                  8      0.0000       0.00000       A     3.04857e-01     6.11370e-01
 o29bf                                  8      0.0000       0.00000       A     3.04857e-01     6.11370e-01
 c30bf                                  6      0.0000       0.00000       A     3.39611e-01     4.49156e-01
 h31bf                                  1      0.0000       0.00000       A     2.62381e-01     6.75967e-02
 h32bf                                  1      0.0000       0.00000       A     2.62399e-01     6.76733e-02
 h33bf                                  1      0.0000       0.00000       A     2.62405e-01     6.76334e-02
 h34bf                                  1      0.0000       0.00000       A     2.62498e-01     6.69232e-02
 h35bf                                  1      0.0000       0.00000       A     2.62523e-01     6.73238e-02
 h36bf                                  1      0.0000       0.00000       A     2.53506e-01     6.72855e-02
 h37bf                                  1      0.0000       0.00000       A     2.53506e-01     6.72855e-02
 h38bf                                  1      0.0000       0.00000       A     1.10952e-01     4.04428e-02
 h39bf                                  1      0.0000       0.00000       A     2.62695e-01     6.74962e-02
 h40bf                                  1      0.0000       0.00000       A     2.53862e-01     6.73015e-02
 h41bf                                  1      0.0000       0.00000       A     2.41969e-01     8.74279e-02
 h42bf                                  1      0.0000       0.00000       A     2.41969e-01     8.74279e-02
 h43bf                                  1      0.0000       0.00000       A     2.41969e-01     8.74279e-02
 h44bf                                  1      0.0000       0.00000       A     2.62744e-01     6.79622e-02
 h45bf                                  1      0.0000       0.00000       A     2.53644e-01     6.69998e-02
 h46bf                                  1      0.0000       0.00000       A     2.53583e-01     6.80915e-02
 h47bf                                  1      0.0000       0.00000       A     2.42021e-01     8.71597e-02
 h48bf                                  1      0.0000       0.00000       A     2.42021e-01     8.71597e-02
 h49bf                                  1      0.0000       0.00000       A     2.42021e-01     8.71597e-02

[ moleculetype ]
;name             nrexcl
 35_flip               3

[ atoms ]
;       nr            type      resi   res      atom      cgnr      charge          mass ; qtot
         1            c0bf         1   UNL        c0         1     0.30813       12.0110 ; qtot    0.308
         2            c1bf         1   UNL        c1         2    -0.13115       12.0110 ; qtot    0.177
         3            c2bf         1   UNL        c2         3     0.02972       12.0110 ; qtot    0.207
         4            c3bf         1   UNL        c3         4     0.21965       12.0110 ; qtot    0.426
         5            c4bf         1   UNL        c4         5     0.25847       12.0110 ; qtot    0.685
         6            c5bf         1   UNL        c5         6    -0.14199       12.0110 ; qtot    0.543
         7            c6bf         1   UNL        c6         7    -0.02826       12.0110 ; qtot    0.515
         8            c7bf         1   UNL        c7         8    -0.10478       12.0110 ; qtot    0.410
         9            c8bf         1   UNL        c8         9    -0.04872       12.0110 ; qtot    0.361
        10            c9bf         1   UNL        c9        10    -0.09246       12.0110 ; qtot    0.269
        11           c10bf         1   UNL       c10        11    -0.07162       12.0110 ; qtot    0.197
        12           c11bf         1   UNL       c11        12    -0.11542       12.0110 ; qtot    0.082
        13           n12bf         1   UNL       n12        13    -0.62285       14.0070 ; qtot   -0.541
        14           c13bf         1   UNL       c13        14     0.29405       12.0110 ; qtot   -0.247
        15           c14bf         1   UNL       c14        15     0.29317       12.0110 ; qtot    0.046
        16           n15bf         1   UNL       n15        16    -0.62228       14.0070 ; qtot   -0.576
        17           n16bf         1   UNL       n16        17    -0.96404       14.0070 ; qtot   -1.540
        18           c17bf         1   UNL       c17        18    -0.24093       12.0110 ; qtot   -1.781
        19           c18bf         1   UNL       c18        19    -0.14808       12.0110 ; qtot   -1.929
        20           n19bf         1   UNL       n19        20    -0.10934       14.0070 ; qtot   -2.039
        21           c20bf         1   UNL       c20        21     0.06426       12.0110 ; qtot   -1.974
        22           c21bf         1   UNL       c21        22     0.35358       12.0110 ; qtot   -1.621
        23           c22bf         1   UNL       c22        23    -0.27733       12.0110 ; qtot   -1.898
        24           c23bf         1   UNL       c23        24    -0.03902       12.0110 ; qtot   -1.937
        25           c24bf         1   UNL       c24        25     0.28639       12.0110 ; qtot   -1.651
        26           n25bf         1   UNL       n25        26    -0.60355       14.0070 ; qtot   -2.254
        27           c26bf         1   UNL       c26        27     0.27846       12.0110 ; qtot   -1.976
        28           s27bf         1   UNL       s27        28     0.99436       32.0670 ; qtot   -0.982
        29           o28bf         1   UNL       o28        29    -0.51400       15.9990 ; qtot   -1.496
        30           o29bf         1   UNL       o29        30    -0.51400       15.9990 ; qtot   -2.010
        31           c30bf         1   UNL       c30        31    -0.29607       12.0110 ; qtot   -2.306
        32           h31bf         1   UNL       h31        32     0.12730        1.0080 ; qtot   -2.178
        33           h32bf         1   UNL       h32        33     0.14328        1.0080 ; qtot   -2.035
        34           h33bf         1   UNL       h33        34     0.12602        1.0080 ; qtot   -1.909
        35           h34bf         1   UNL       h34        35     0.11787        1.0080 ; qtot   -1.791
        36           h35bf         1   UNL       h35        36     0.12044        1.0080 ; qtot   -1.671
        37           h36bf         1   UNL       h36        37     0.03160        1.0080 ; qtot   -1.639
        38           h37bf         1   UNL       h37        38     0.03158        1.0080 ; qtot   -1.608
        39           h38bf         1   UNL       h38        39     0.51181        1.0080 ; qtot   -1.096
        40           h39bf         1   UNL       h39        40     0.20439        1.0080 ; qtot   -0.891
        41           h40bf         1   UNL       h40        41     0.20730        1.0080 ; qtot   -0.684
        42           h41bf         1   UNL       h41        42     0.04880        1.0080 ; qtot   -0.635
        43           h42bf         1   UNL       h42        43     0.04880        1.0080 ; qtot   -0.586
        44           h43bf         1   UNL       h43        44     0.04880        1.0080 ; qtot   -0.538
        45           h44bf         1   UNL       h44        45     0.15079        1.0080 ; qtot   -0.387
        46           h45bf         1   UNL       h45        46     0.03700        1.0080 ; qtot   -0.350
        47           h46bf         1   UNL       h46        47     0.03589        1.0080 ; qtot   -0.314
        48           h47bf         1   UNL       h47        48     0.10467        1.0080 ; qtot   -0.209
        49           h48bf         1   UNL       h48        49     0.10467        1.0080 ; qtot   -0.105
        50           h49bf         1   UNL       h49        50     0.10464        1.0080 ; qtot   -0.000

[ bonds ]
;       ai        aj funct               r               k
         1         2     1        0.142346   251378.162402
         1         6     1        0.138622   325678.790723
         1        17     1        0.140593   260287.140527
         2         3     1        0.138628   330545.857324
         2        32     1        0.108420   321509.091504
         3         4     1        0.143443   237124.931250
         3         7     1        0.148398   213063.534814
         4         5     1        0.143386   223579.435547
         4        16     1        0.136378   268382.225439
         5         6     1        0.141521   284459.010498
         5        13     1        0.136675   270922.835840
         6        33     1        0.108434   324306.120020
         7         8     1        0.140177   290488.679541
         7        12     1        0.142023   258564.534814
         8         9     1        0.139784   309529.914404
         8        34     1        0.108455   321154.636426
         9        10     1        0.142620   240876.639063
         9        20     1        0.138337   262427.661035
        10        11     1        0.140748   301486.669824
        10        18     1        0.143732   250154.756104
        11        12     1        0.138890   334507.684473
        11        35     1        0.108659   317447.771777
        12        36     1        0.108507   320582.503027
        13        14     1        0.131846   380187.239941
        14        15     1        0.142216   238192.510107
        14        37     1        0.108836   315483.763770
        15        16     1        0.131881   374103.202393
        15        38     1        0.108820   315940.162988
        17        22     1        0.138908   287909.073975
        17        39     1        0.101485   406811.259766
        18        19     1        0.137637   378975.121045
        18        40     1        0.108169   334460.823877
        19        20     1        0.138674   275419.129150
        19        41     1        0.108218   333100.385449
        20        21     1        0.145037   228862.935791
        21        42     1        0.109354   299824.280615
        21        43     1        0.109354   299824.280615
        21        44     1        0.109354   299824.280615
        22        23     1        0.141314   265581.391895
        22        27     1        0.141520   257222.712939
        23        24     1        0.139402   313134.068799
        23        28     1        0.180715   124483.640259
        24        25     1        0.139506   299656.731641
        24        45     1        0.108446   326160.114160
        25        26     1        0.133977   313656.558057
        25        46     1        0.108702   319547.177539
        26        27     1        0.133244   341315.111719
        27        47     1        0.108642   319937.129199
        28        29     1        0.147464   495020.215039
        28        30     1        0.147464   495020.215039
        28        31     1        0.180772   140787.539600
        31        48     1        0.109028   319230.108789
        31        49     1        0.109028   319230.108789
        31        50     1        0.109028   319230.108789

[ angles ]
;       ai        aj        ak funct           theta             cth
         1         2         3     1      122.413124      713.183664
         1         2        32     1      118.470383      447.200912
         1         6         5     1      120.257889      537.525444
         1         6        33     1      121.917053      423.581575
         1        17        22     1      126.297546      421.362177
         1        17        39     1      115.426346      433.799388
         2         1         6     1      119.340256      642.053685
         2         1        17     1      119.236771      541.059908
         2         3         4     1      118.274681      534.012432
         2         3         7     1      119.145592      472.282120
         3         2        32     1      118.685989      415.785511
         3         4         5     1      118.941978      697.082325
         3         4        16     1      120.418312      431.095455
         3         7         8     1      120.170876      423.701025
         3         7        12     1      119.991798      509.193458
         4         3         7     1      122.735001      444.446511
         4         5         6     1      120.564919      663.113437
         4         5        13     1      121.322975      705.924740
         4        16        15     1      117.611557      602.010986
         5         4        16     1      120.208412      782.715531
         5         6        33     1      117.843239      439.647833
         5        13        14     1      116.661819      559.934704
         6         1        17     1      121.254745      492.361151
         6         5        13     1      118.281189      431.308051
         7         8         9     1      118.398575      751.074541
         7         8        34     1      120.057411      403.248833
         7        12        11     1      121.801224      641.863816
         7        12        36     1      118.687279      420.254569
         8         7        12     1      119.636536      629.940923
         8         9        10     1      122.437134      653.014148
         8         9        20     1      129.874054      438.808396
         9         8        34     1      121.695938      415.416116
         9        10        11     1      118.372032      712.683903
         9        10        18     1      106.661888      331.741096
         9        20        19     1      108.453735      401.502701
         9        20        21     1      125.119286      518.958401
        10         9        20     1      107.846840      167.360000
        10        11        12     1      119.249611      721.006127
        10        11        35     1      120.565613      437.227138
        10        18        19     1      106.844933      436.901987
        10        18        40     1      127.302994      394.236308
        11        10        18     1      134.867035      476.020082
        11        12        36     1      119.736038      414.498696
        12        11        35     1      120.280472      430.417668
        13        14        15     1      122.299545      738.442163
        13        14        37     1      117.380966      342.428057
        14        15        16     1      122.256546      732.863901
        14        15        38     1      120.142014      430.475797
        15        14        37     1      120.145851      429.987368
        16        15        38     1      117.339157      362.478902
        17        22        23     1      121.389572      543.101089
        17        22        27     1      122.505417      578.362793
        18        19        20     1      110.138916      213.458281
        18        19        41     1      129.977615      347.479457
        19        18        40     1      125.794395      397.722794
        19        20        21     1      126.406151      427.630292
        20        19        41     1      120.093422      439.489056
        20        21        42     1      110.346970      460.989003
        20        21        43     1      110.346970      460.989003
        20        21        44     1      110.346970      460.989003
        22        17        39     1      114.551170      450.222622
        22        23        24     1      120.275772      760.585008
        22        23        28     1      121.663406      744.979280
        22        27        26     1      124.232620      770.104221
        22        27        47     1      119.153419      415.430290
        23        22        27     1      115.672928      673.644813
        23        24        25     1      118.684898      679.603897
        23        24        45     1      120.270645      343.599700
        23        28        29     1      107.938034      640.902216
        23        28        30     1      107.938034      640.902216
        23        28        31     1      103.486069      654.077513
        24        23        28     1      117.699501      539.880923
        24        25        26     1      122.754715      730.070077
        24        25        46     1      120.538696      415.343272
        25        24        45     1      121.212906      424.346412
        25        26        27     1      118.320412      693.264782
        26        25        46     1      116.530663      356.374383
        26        27        47     1      116.504784      340.209521
        28        31        48     1      107.672256      569.998368
        28        31        49     1      107.672256      569.998368
        28        31        50     1      107.672256      569.998368
        29        28        30     1      120.015259      741.792249
        29        28        31     1      107.539932      732.341412
        30        28        31     1      107.539932      732.341412
        42        21        43     1      108.719864      352.472281
        42        21        44     1      108.719864      352.472281
        43        21        44     1      108.719864      352.472281
        48        31        49     1      111.147987      344.776258
        48        31        50     1      111.147987      344.776258
        49        31        50     1      111.147987      344.776258

[ dihedrals ] ; propers for gromacs 4.5 or higher, use funct 9
;       ai        aj        ak        al funct           phase               k        pn
         1         2         3         4     9        0.000000       -0.222467         1
         1         2         3         4     9      180.000000       19.359643         2
         1         2         3         4     9        0.000000       -1.525308         3
         1         2         3         4     9      180.000000       -0.307919         4
         1         2         3         7     9        0.000000        0.336343         1
         1         2         3         7     9      180.000000       19.330283         2
         1         2         3         7     9        0.000000        0.018427         3
         1         2         3         7     9      180.000000       -0.798031         4
         1         6         5         4     9        0.000000       -0.535157         1
         1         6         5         4     9      180.000000       13.643161         2
         1         6         5         4     9        0.000000       -0.954560         3
         1         6         5         4     9      180.000000       -0.185752         4
         1         6         5        13     9        0.000000       -0.306896         1
         1         6         5        13     9      180.000000       14.010283         2
         1         6         5        13     9        0.000000       -0.425194         3
         1         6         5        13     9      180.000000       -0.392179         4
         1        17        22        23     9        0.000000       -1.816149         1
         1        17        22        23     9      180.000000        4.619861         2
         1        17        22        23     9        0.000000       -0.590150         3
         1        17        22        23     9      180.000000        0.059912         4
         1        17        22        27     9        0.000000        1.786048         1
         1        17        22        27     9      180.000000        3.116501         2
         1        17        22        27     9        0.000000       -0.286578         3
         1        17        22        27     9      180.000000        0.145436         4
         2         1         6         5     9        0.000000       -0.172694         1
         2         1         6         5     9      180.000000       17.269977         2
         2         1         6         5     9        0.000000       -1.150047         3
         2         1         6         5     9      180.000000       -0.415714         4
         2         1         6        33     9        0.000000        0.057194         1
         2         1         6        33     9      180.000000       13.340744         2
         2         1         6        33     9        0.000000       -0.358398         3
         2         1         6        33     9      180.000000        0.131357         4
         2         1        17        22     9        0.000000       -0.235195         1
         2         1        17        22     9      180.000000        3.390105         2
         2         1        17        22     9        0.000000        0.020232         3
         2         1        17        22     9      180.000000        0.120802         4
         2         1        17        39     9        0.000000       -0.401552         1
         2         1        17        39     9      180.000000        3.316239         2
         2         1        17        39     9        0.000000        0.053714         3
         2         1        17        39     9      180.000000        0.093664         4
         2         3         4         5     9        0.000000       -0.407536         1
         2         3         4         5     9      180.000000       10.542523         2
         2         3         4         5     9        0.000000       -0.867661         3
         2         3         4         5     9      180.000000        0.040791         4
         2         3         4        16     9        0.000000        0.050013         1
         2         3         4        16     9      180.000000        9.582072         2
         2         3         4        16     9        0.000000       -0.305997         3
         2         3         4        16     9      180.000000       -0.087278         4
         2         3         7         8     9        0.000000       -0.281080         1
         2         3         7         8     9      180.000000        4.548832         2
         2         3         7         8     9        0.000000        0.184037         3
         2         3         7         8     9      180.000000        0.569057         4
         2         3         7        12     9        0.000000       -0.479631         1
         2         3         7        12     9      180.000000        4.596343         2
         2         3         7        12     9        0.000000       -0.037898         3
         2         3         7        12     9      180.000000        0.664984         4
         3         2         1         6     9        0.000000        0.164096         1
         3         2         1         6     9      180.000000       14.161053         2
         3         2         1         6     9        0.000000       -0.838173         3
         3         2         1         6     9      180.000000       -0.233555         4
         3         2         1        17     9        0.000000        0.210444         1
         3         2         1        17     9      180.000000       15.567579         2
         3         2         1        17     9        0.000000        0.101180         3
         3         2         1        17     9      180.000000       -0.446371         4
         3         4         5         6     9        0.000000        0.151864         1
         3         4         5         6     9      180.000000       11.489531         2
         3         4         5         6     9        0.000000       -0.456158         3
         3         4         5         6     9      180.000000       -0.212062         4
         3         4         5        13     9        0.000000       -0.330478         1
         3         4         5        13     9      180.000000       10.070723         2
         3         4         5        13     9        0.000000        0.089420         3
         3         4         5        13     9      180.000000       -0.272537         4
         3         4        16        15     9        0.000000        0.601589         1
         3         4        16        15     9      180.000000       16.401410         2
         3         4        16        15     9        0.000000        0.383470         3
         3         4        16        15     9      180.000000       -0.372567         4
         3         7         8         9     9        0.000000        0.136674         1
         3         7         8         9     9      180.000000       16.945795         2
         3         7         8         9     9        0.000000        0.082086         3
         3         7         8         9     9      180.000000       -0.583671         4
         3         7         8        34     9        0.000000       -0.030768         1
         3         7         8        34     9      180.000000       12.702616         2
         3         7         8        34     9        0.000000       -0.105191         3
         3         7         8        34     9      180.000000        0.147513         4
         3         7        12        11     9        0.000000        0.279806         1
         3         7        12        11     9      180.000000       14.116178         2
         3         7        12        11     9        0.000000       -0.110733         3
         3         7        12        11     9      180.000000       -0.148110         4
         3         7        12        36     9        0.000000       -0.010356         1
         3         7        12        36     9      180.000000       12.522142         2
         3         7        12        36     9        0.000000       -0.209991         3
         3         7        12        36     9      180.000000        0.141486         4
         4         3         2        32     9        0.000000        0.197520         1
         4         3         2        32     9      180.000000       15.644650         2
         4         3         2        32     9        0.000000       -0.327288         3
         4         3         2        32     9      180.000000        0.175226         4
         4         3         7         8     9        0.000000       -0.418488         1
         4         3         7         8     9      180.000000        4.256820         2
         4         3         7         8     9        0.000000       -0.213207         3
         4         3         7         8     9      180.000000        0.830008         4
         4         3         7        12     9        0.000000       -0.007629         1
         4         3         7        12     9      180.000000        4.221759         2
         4         3         7        12     9        0.000000       -0.027697         3
         4         3         7        12     9      180.000000        0.767394         4
         4         5         6        33     9        0.000000       -0.170722         1
         4         5         6        33     9      180.000000       10.545502         2
         4         5         6        33     9        0.000000       -0.262493         3
         4         5         6        33     9      180.000000       -0.003795         4
         4         5        13        14     9        0.000000       -0.107917         1
         4         5        13        14     9      180.000000       16.440884         2
         4         5        13        14     9        0.000000        0.043440         3
         4         5        13        14     9      180.000000       -0.231039         4
         4        16        15        14     9        0.000000        0.103246         1
         4        16        15        14     9      180.000000       25.050129         2
         4        16        15        14     9        0.000000       -0.948796         3
         4        16        15        14     9      180.000000       -0.159022         4
         4        16        15        38     9        0.000000        0.727425         1
         4        16        15        38     9      180.000000       22.903270         2
         4        16        15        38     9        0.000000        0.106513         3
         4        16        15        38     9      180.000000       -0.552430         4
         5         4         3         7     9        0.000000        0.119155         1
         5         4         3         7     9      180.000000       12.677562         2
         5         4         3         7     9        0.000000       -0.023199         3
         5         4         3         7     9      180.000000       -0.468567         4
         5         4        16        15     9        0.000000        0.188122         1
         5         4        16        15     9      180.000000       16.793790         2
         5         4        16        15     9        0.000000       -0.050994         3
         5         4        16        15     9      180.000000       -0.239062         4
         5         6         1        17     9        0.000000        0.246511         1
         5         6         1        17     9      180.000000       19.522849         2
         5         6         1        17     9        0.000000        0.055608         3
         5         6         1        17     9      180.000000       -0.772829         4
         5        13        14        15     9        0.000000       -0.161990         1
         5        13        14        15     9      180.000000       25.805864         2
         5        13        14        15     9        0.000000       -0.989158         3
         5        13        14        15     9      180.000000       -0.201960         4
         5        13        14        37     9        0.000000        0.808513         1
         5        13        14        37     9      180.000000       23.535886         2
         5        13        14        37     9        0.000000        0.064004         3
         5        13        14        37     9      180.000000       -0.475717         4
         6         1         2        32     9        0.000000       -0.064754         1
         6         1         2        32     9      180.000000       11.935984         2
         6         1         2        32     9        0.000000       -0.432953         3
         6         1         2        32     9      180.000000        0.110544         4
         6         1        17        22     9        0.000000       -0.167870         1
         6         1        17        22     9      180.000000        3.526327         2
         6         1        17        22     9        0.000000       -0.356689         3
         6         1        17        22     9      180.000000        0.139573         4
         6         1        17        39     9        0.000000       -0.457732         1
         6         1        17        39     9      180.000000        3.512781         2
         6         1        17        39     9        0.000000       -0.099182         3
         6         1        17        39     9      180.000000        0.073474         4
         6         5         4        16     9        0.000000        0.340547         1
         6         5         4        16     9      180.000000       11.179591         2
         6         5         4        16     9        0.000000       -0.065208         3
         6         5         4        16     9      180.000000       -0.244500         4
         6         5        13        14     9        0.000000       -0.023334         1
         6         5        13        14     9      180.000000       18.424194         2
         6         5        13        14     9        0.000000        0.154347         3
         6         5        13        14     9      180.000000       -0.275637         4
         7         3         2        32     9        0.000000        0.009108         1
         7         3         2        32     9      180.000000       14.924331         2
         7         3         2        32     9        0.000000       -0.149141         3
         7         3         2        32     9      180.000000        0.103228         4
         7         3         4        16     9        0.000000       -0.537272         1
         7         3         4        16     9      180.000000       12.390915         2
         7         3         4        16     9        0.000000       -0.149751         3
         7         3         4        16     9      180.000000       -0.482238         4
         7         8         9        10     9        0.000000       -0.017253         1
         7         8         9        10     9      180.000000       17.488273         2
         7         8         9        10     9        0.000000       -1.598855         3
         7         8         9        10     9      180.000000       -0.379347         4
         7         8         9        20     9        0.000000        0.196074         1
         7         8         9        20     9      180.000000       15.844595         2
         7         8         9        20     9        0.000000       -0.300946         3
         7         8         9        20     9      180.000000       -0.376237         4
         7        12        11        10     9        0.000000       -0.118289         1
         7        12        11        10     9      180.000000       21.128618         2
         7        12        11        10     9        0.000000       -1.641639         3
         7        12        11        10     9      180.000000       -0.503144         4
         7        12        11        35     9        0.000000        0.009880         1
         7        12        11        35     9      180.000000       15.243821         2
         7        12        11        35     9        0.000000       -0.469502         3
         7        12        11        35     9      180.000000        0.094909         4
         8         7        12        11     9        0.000000       -0.065410         1
         8         7        12        11     9      180.000000       17.441546         2
         8         7        12        11     9        0.000000       -1.329842         3
         8         7        12        11     9      180.000000       -0.337279         4
         8         7        12        36     9        0.000000        0.068411         1
         8         7        12        36     9      180.000000       13.347188         2
         8         7        12        36     9        0.000000       -0.612318         3
         8         7        12        36     9      180.000000        0.142637         4
         8         9        10        11     9        0.000000       -0.133893         1
         8         9        10        11     9      180.000000       10.794700         2
         8         9        10        11     9        0.000000       -1.527213         3
         8         9        10        11     9      180.000000       -0.100381         4
         8         9        10        18     9        0.000000        0.248175         1
         8         9        10        18     9      180.000000        9.818865         2
         8         9        10        18     9        0.000000       -1.629277         3
         8         9        10        18     9      180.000000        0.022166         4
         8         9        20        19     9        0.000000        0.500541         1
         8         9        20        19     9      180.000000        3.128844         2
         8         9        20        19     9        0.000000        0.183652         3
         8         9        20        19     9      180.000000        0.149882         4
         8         9        20        21     9        0.000000       -0.573620         1
         8         9        20        21     9      180.000000        2.163895         2
         8         9        20        21     9        0.000000       -0.138617         3
         8         9        20        21     9      180.000000        0.234159         4
         9         8         7        12     9        0.000000       -0.183448         1
         9         8         7        12     9      180.000000       20.850224         2
         9         8         7        12     9        0.000000       -1.683318         3
         9         8         7        12     9      180.000000       -0.513114         4
         9        10        11        12     9        0.000000       -0.078279         1
         9        10        11        12     9      180.000000       19.312301         2
         9        10        11        12     9        0.000000       -2.075100         3
         9        10        11        12     9      180.000000       -0.384435         4
         9        10        11        35     9        0.000000        0.129794         1
         9        10        11        35     9      180.000000       13.454264         2
         9        10        11        35     9        0.000000       -0.407697         3
         9        10        11        35     9      180.000000       -0.071090         4
         9        10        18        19     9        0.000000       -0.144249         1
         9        10        18        19     9      180.000000       27.856906         2
         9        10        18        19     9        0.000000       -8.906379         3
         9        10        18        19     9      180.000000       -0.172843         4
         9        10        18        40     9        0.000000        0.524513         1
         9        10        18        40     9      180.000000       10.013757         2
         9        10        18        40     9        0.000000        0.306404         3
         9        10        18        40     9      180.000000       -0.273153         4
         9        20        19        18     9        0.000000        0.071986         1
         9        20        19        18     9      180.000000       24.295210         2
         9        20        19        18     9        0.000000       -6.032990         3
         9        20        19        18     9      180.000000       -0.546083         4
         9        20        19        41     9        0.000000        1.179454         1
         9        20        19        41     9      180.000000        9.792244         2
         9        20        19        41     9        0.000000        0.433460         3
         9        20        19        41     9      180.000000       -0.227068         4
         9        20        21        42     9        0.000000       -0.029669         1
         9        20        21        42     9      180.000000        0.037189         2
         9        20        21        42     9        0.000000        0.648893         3
         9        20        21        42     9      180.000000        0.010602         4
         9        20        21        43     9        0.000000       -0.029669         1
         9        20        21        43     9      180.000000        0.037189         2
         9        20        21        43     9        0.000000        0.648893         3
         9        20        21        43     9      180.000000        0.010602         4
         9        20        21        44     9        0.000000       -0.029669         1
         9        20        21        44     9      180.000000        0.037189         2
         9        20        21        44     9        0.000000        0.648893         3
         9        20        21        44     9      180.000000        0.010602         4
        10         9         8        34     9        0.000000        0.110455         1
        10         9         8        34     9      180.000000       12.495681         2
        10         9         8        34     9        0.000000       -0.150764         3
        10         9         8        34     9      180.000000       -0.026669         4
        10         9        20        19     9        0.000000       -0.044931         1
        10         9        20        19     9      180.000000       21.153661         2
        10         9        20        19     9        0.000000       -5.745464         3
        10         9        20        19     9      180.000000       -0.067603         4
        10         9        20        21     9        0.000000        0.115830         1
        10         9        20        21     9      180.000000        2.619976         2
        10         9        20        21     9        0.000000        0.721152         3
        10         9        20        21     9      180.000000        0.210197         4
        10        11        12        36     9        0.000000        0.095400         1
        10        11        12        36     9      180.000000       16.437463         2
        10        11        12        36     9        0.000000       -0.519789         3
        10        11        12        36     9      180.000000       -0.017390         4
        10        18        19        20     9        0.000000       -0.260769         1
        10        18        19        20     9      180.000000       31.849324         2
        10        18        19        20     9        0.000000       -6.215833         3
        10        18        19        20     9      180.000000       -0.787799         4
        10        18        19        41     9        0.000000        0.028299         1
        10        18        19        41     9      180.000000       17.079476         2
        10        18        19        41     9        0.000000       -0.319769         3
        10        18        19        41     9      180.000000       -0.381525         4
        11        10         9        20     9        0.000000        0.487087         1
        11        10         9        20     9      180.000000       11.126999         2
        11        10         9        20     9        0.000000       -2.247676         3
        11        10         9        20     9      180.000000       -0.106315         4
        11        10        18        19     9        0.000000        0.355092         1
        11        10        18        19     9      180.000000        4.201618         2
        11        10        18        19     9        0.000000       -0.563694         3
        11        10        18        19     9      180.000000        0.008346         4
        11        10        18        40     9        0.000000       -0.623804         1
        11        10        18        40     9      180.000000        4.278389         2
        11        10        18        40     9        0.000000       -0.168310         3
        11        10        18        40     9      180.000000        0.142292         4
        12         7         8        34     9        0.000000        0.060949         1
        12         7         8        34     9      180.000000       13.908900         2
        12         7         8        34     9        0.000000       -0.456522         3
        12         7         8        34     9      180.000000        0.109681         4
        12        11        10        18     9        0.000000        0.118318         1
        12        11        10        18     9      180.000000       13.391727         2
        12        11        10        18     9        0.000000       -0.511420         3
        12        11        10        18     9      180.000000       -0.145206         4
        13         5         4        16     9        0.000000        0.159900         1
        13         5         4        16     9      180.000000       11.086215         2
        13         5         4        16     9        0.000000        0.160518         3
        13         5         4        16     9      180.000000       -0.397159         4
        13         5         6        33     9        0.000000        0.016940         1
        13         5         6        33     9      180.000000       11.980067         2
        13         5         6        33     9        0.000000       -0.349905         3
        13         5         6        33     9      180.000000        0.012863         4
        13        14        15        16     9        0.000000       -0.713203         1
        13        14        15        16     9      180.000000       11.742392         2
        13        14        15        16     9        0.000000       -0.552181         3
        13        14        15        16     9      180.000000       -0.521535         4
        13        14        15        38     9        0.000000       -0.199022         1
        13        14        15        38     9      180.000000        9.267615         2
        13        14        15        38     9        0.000000       -0.318099         3
        13        14        15        38     9      180.000000       -0.090079         4
        16        15        14        37     9        0.000000       -0.026031         1
        16        15        14        37     9      180.000000        9.508286         2
        16        15        14        37     9        0.000000       -0.255749         3
        16        15        14        37     9      180.000000       -0.134502         4
        17         1         2        32     9        0.000000       -0.058686         1
        17         1         2        32     9      180.000000       14.053045         2
        17         1         2        32     9        0.000000       -0.041461         3
        17         1         2        32     9      180.000000        0.138031         4
        17         1         6        33     9        0.000000       -0.006423         1
        17         1         6        33     9      180.000000       15.238161         2
        17         1         6        33     9        0.000000       -0.072527         3
        17         1         6        33     9      180.000000        0.161232         4
        17        22        23        24     9        0.000000        0.142200         1
        17        22        23        24     9      180.000000       15.897986         2
        17        22        23        24     9        0.000000        0.030266         3
        17        22        23        24     9      180.000000       -0.460852         4
        17        22        23        28     9        0.000000       -0.927876         1
        17        22        23        28     9      180.000000       13.516794         2
        17        22        23        28     9        0.000000       -0.073923         3
        17        22        23        28     9      180.000000       -0.622706         4
        17        22        27        26     9        0.000000        0.186748         1
        17        22        27        26     9      180.000000       16.683918         2
        17        22        27        26     9        0.000000        0.179116         3
        17        22        27        26     9      180.000000       -0.684726         4
        17        22        27        47     9        0.000000       -0.299543         1
        17        22        27        47     9      180.000000       14.371221         2
        17        22        27        47     9        0.000000       -0.253274         3
        17        22        27        47     9      180.000000        0.145399         4
        18        10         9        20     9        0.000000        0.328899         1
        18        10         9        20     9      180.000000       18.442128         2
        18        10         9        20     9        0.000000       -5.909619         3
        18        10         9        20     9      180.000000       -0.307642         4
        18        10        11        35     9        0.000000       -0.042377         1
        18        10        11        35     9      180.000000       10.471314         2
        18        10        11        35     9        0.000000        0.025301         3
        18        10        11        35     9      180.000000        0.084200         4
        18        19        20        21     9        0.000000        0.366988         1
        18        19        20        21     9      180.000000        4.347227         2
        18        19        20        21     9        0.000000        0.693744         3
        18        19        20        21     9      180.000000        0.283870         4
        19        20        21        42     9        0.000000       -0.051100         1
        19        20        21        42     9      180.000000       -0.000828         2
        19        20        21        42     9        0.000000        0.314565         3
        19        20        21        42     9      180.000000        0.005469         4
        19        20        21        43     9        0.000000       -0.051100         1
        19        20        21        43     9      180.000000       -0.000828         2
        19        20        21        43     9        0.000000        0.314565         3
        19        20        21        43     9      180.000000        0.005469         4
        19        20        21        44     9        0.000000       -0.051100         1
        19        20        21        44     9      180.000000       -0.000828         2
        19        20        21        44     9        0.000000        0.314565         3
        19        20        21        44     9      180.000000        0.005469         4
        20         9         8        34     9        0.000000        0.216516         1
        20         9         8        34     9      180.000000       11.255693         2
        20         9         8        34     9        0.000000       -0.046908         3
        20         9         8        34     9      180.000000        0.106758         4
        20        19        18        40     9        0.000000       -0.078116         1
        20        19        18        40     9      180.000000       15.996352         2
        20        19        18        40     9        0.000000       -0.292964         3
        20        19        18        40     9      180.000000       -0.324606         4
        21        20        19        41     9        0.000000       -0.501732         1
        21        20        19        41     9      180.000000        1.998448         2
        21        20        19        41     9        0.000000        0.284959         3
        21        20        19        41     9      180.000000       -0.030005         4
        22        23        24        25     9        0.000000       -0.049559         1
        22        23        24        25     9      180.000000       18.886869         2
        22        23        24        25     9        0.000000       -2.021566         3
        22        23        24        25     9      180.000000       -0.405198         4
        22        23        24        45     9        0.000000        0.229105         1
        22        23        24        45     9      180.000000       14.976778         2
        22        23        24        45     9        0.000000       -0.507226         3
        22        23        24        45     9      180.000000        0.085320         4
        22        23        28        29     9        0.000000       -1.334283         1
        22        23        28        29     9      180.000000        0.814377         2
        22        23        28        29     9        0.000000        0.785313         3
        22        23        28        29     9      180.000000       -0.187783         4
        22        23        28        30     9        0.000000       -1.334283         1
        22        23        28        30     9      180.000000        0.814377         2
        22        23        28        30     9        0.000000        0.785313         3
        22        23        28        30     9      180.000000       -0.187783         4
        22        23        28        31     9        0.000000        3.729087         1
        22        23        28        31     9      180.000000       -2.195929         2
        22        23        28        31     9        0.000000        0.799428         3
        22        23        28        31     9      180.000000        0.054292         4
        22        27        26        25     9        0.000000        0.319721         1
        22        27        26        25     9      180.000000       22.949105         2
        22        27        26        25     9        0.000000       -0.741216         3
        22        27        26        25     9      180.000000        0.175923         4
        23        22        17        39     9        0.000000        2.440460         1
        23        22        17        39     9      180.000000        3.205589         2
        23        22        17        39     9        0.000000       -0.727467         3
        23        22        17        39     9      180.000000        0.027702         4
        23        22        27        26     9        0.000000       -0.510166         1
        23        22        27        26     9      180.000000       14.375531         2
        23        22        27        26     9        0.000000       -0.595358         3
        23        22        27        26     9      180.000000       -0.489937         4
        23        22        27        47     9        0.000000        0.058995         1
        23        22        27        47     9      180.000000       12.296400         2
        23        22        27        47     9        0.000000       -0.329284         3
        23        22        27        47     9      180.000000        0.069067         4
        23        24        25        26     9        0.000000       -0.220827         1
        23        24        25        26     9      180.000000       18.549634         2
        23        24        25        26     9        0.000000       -1.222990         3
        23        24        25        26     9      180.000000       -0.581963         4
        23        24        25        46     9        0.000000        0.008007         1
        23        24        25        46     9      180.000000       14.871302         2
        23        24        25        46     9        0.000000       -0.365301         3
        23        24        25        46     9      180.000000       -0.122425         4
        23        28        31        48     9        0.000000        0.134670         1
        23        28        31        48     9      180.000000       -0.180389         2
        23        28        31        48     9        0.000000        0.326690         3
        23        28        31        48     9      180.000000       -0.016353         4
        23        28        31        49     9        0.000000        0.134670         1
        23        28        31        49     9      180.000000       -0.180389         2
        23        28        31        49     9        0.000000        0.326690         3
        23        28        31        49     9      180.000000       -0.016353         4
        23        28        31        50     9        0.000000        0.134670         1
        23        28        31        50     9      180.000000       -0.180389         2
        23        28        31        50     9        0.000000        0.326690         3
        23        28        31        50     9      180.000000       -0.016353         4
        24        23        22        27     9        0.000000       -0.037262         1
        24        23        22        27     9      180.000000       14.380148         2
        24        23        22        27     9        0.000000       -0.900345         3
        24        23        22        27     9      180.000000       -0.221953         4
        24        23        28        29     9        0.000000       -0.090526         1
        24        23        28        29     9      180.000000        0.655865         2
        24        23        28        29     9        0.000000       -0.321289         3
        24        23        28        29     9      180.000000       -0.045697         4
        24        23        28        30     9        0.000000       -0.090526         1
        24        23        28        30     9      180.000000        0.655865         2
        24        23        28        30     9        0.000000       -0.321289         3
        24        23        28        30     9      180.000000       -0.045697         4
        24        23        28        31     9        0.000000        0.119865         1
        24        23        28        31     9      180.000000       -0.559450         2
        24        23        28        31     9        0.000000       -0.551232         3
        24        23        28        31     9      180.000000        0.255504         4
        24        25        26        27     9        0.000000        0.177563         1
        24        25        26        27     9      180.000000       22.523858         2
        24        25        26        27     9        0.000000       -0.901752         3
        24        25        26        27     9      180.000000       -0.193725         4
        25        24        23        28     9        0.000000        0.192524         1
        25        24        23        28     9      180.000000       13.995354         2
        25        24        23        28     9        0.000000        0.189775         3
        25        24        23        28     9      180.000000       -0.443899         4
        25        26        27        47     9        0.000000        1.115356         1
        25        26        27        47     9      180.000000       20.962218         2
        25        26        27        47     9        0.000000        0.247396         3
        25        26        27        47     9      180.000000       -0.016300         4
        26        25        24        45     9        0.000000        0.066373         1
        26        25        24        45     9      180.000000       14.573594         2
        26        25        24        45     9        0.000000       -0.318036         3
        26        25        24        45     9      180.000000       -0.017204         4
        27        22        17        39     9        0.000000       -1.272590         1
        27        22        17        39     9      180.000000        2.989698         2
        27        22        17        39     9        0.000000       -0.423807         3
        27        22        17        39     9      180.000000        0.040258         4
        27        22        23        28     9        0.000000        0.366400         1
        27        22        23        28     9      180.000000       11.025740         2
        27        22        23        28     9        0.000000        0.150288         3
        27        22        23        28     9      180.000000       -0.363523         4
        27        26        25        46     9        0.000000        0.988694         1
        27        26        25        46     9      180.000000       20.417146         2
        27        26        25        46     9        0.000000        0.253449         3
        27        26        25        46     9      180.000000       -0.430136         4
        28        23        24        45     9        0.000000       -0.032266         1
        28        23        24        45     9      180.000000       12.082714         2
        28        23        24        45     9        0.000000       -0.269977         3
        28        23        24        45     9      180.000000        0.014566         4
        29        28        31        48     9        0.000000       -0.020339         1
        29        28        31        48     9      180.000000       -0.042566         2
        29        28        31        48     9        0.000000        0.357266         3
        29        28        31        48     9      180.000000        0.004050         4
        29        28        31        49     9        0.000000       -0.020339         1
        29        28        31        49     9      180.000000       -0.042566         2
        29        28        31        49     9        0.000000        0.357266         3
        29        28        31        49     9      180.000000        0.004050         4
        29        28        31        50     9        0.000000       -0.020339         1
        29        28        31        50     9      180.000000       -0.042566         2
        29        28        31        50     9        0.000000        0.357266         3
        29        28        31        50     9      180.000000        0.004050         4
        30        28        31        48     9        0.000000       -0.020339         1
        30        28        31        48     9      180.000000       -0.042566         2
        30        28        31        48     9        0.000000        0.357266         3
        30        28        31        48     9      180.000000        0.004050         4
        30        28        31        49     9        0.000000       -0.020339         1
        30        28        31        49     9      180.000000       -0.042566         2
        30        28        31        49     9        0.000000        0.357266         3
        30        28        31        49     9      180.000000        0.004050         4
        30        28        31        50     9        0.000000       -0.020339         1
        30        28        31        50     9      180.000000       -0.042566         2
        30        28        31        50     9        0.000000        0.357266         3
        30        28        31        50     9      180.000000        0.004050         4
        35        11        12        36     9        0.000000       -0.056311         1
        35        11        12        36     9      180.000000       12.658450         2
        35        11        12        36     9        0.000000       -0.675856         3
        35        11        12        36     9      180.000000        0.271777         4
        37        14        15        38     9        0.000000       -0.431715         1
        37        14        15        38     9      180.000000        6.869070         2
        37        14        15        38     9        0.000000       -0.569257         3
        37        14        15        38     9      180.000000        0.186659         4
        40        18        19        41     9        0.000000        0.003503         1
        40        18        19        41     9      180.000000       10.860043         2
        40        18        19        41     9        0.000000       -0.481074         3
        40        18        19        41     9      180.000000        0.121267         4
        45        24        25        46     9        0.000000       -0.049751         1
        45        24        25        46     9      180.000000       11.944935         2
        45        24        25        46     9        0.000000       -0.710210         3
        45        24        25        46     9      180.000000        0.205813         4

[ dihedrals ] ; impropers
;       ai        aj        ak        al funct           phase               k        pn
        14        13        15        37     4      180.000000        4.162411         2
        14        15        37        13     4      180.000000        4.162411         2
        14        37        13        15     4      180.000000        4.162411         2
        15        14        16        38     4      180.000000        4.409856         2
        15        16        38        14     4      180.000000        4.409856         2
        15        38        14        16     4      180.000000        4.409856         2
        25        24        26        46     4      180.000000        3.347115         2
        25        26        46        24     4      180.000000        3.347115         2
        25        46        24        26     4      180.000000        3.347115         2
        27        22        26        47     4      180.000000        3.547249         2
        27        26        47        22     4      180.000000        3.547249         2
        27        47        22        26     4      180.000000        3.547249         2

[ pairs ]
;       ai        aj funct
         1         4     1
         1         7     1
         1        13     1
         1        23     1
         1        27     1
         2         5     1
         2         8     1
         2        12     1
         2        16     1
         2        22     1
         2        33     1
         2        39     1
         3         6     1
         3         9     1
         3        11     1
         3        13     1
         3        15     1
         3        17     1
         3        34     1
         3        36     1
         4         8     1
         4        12     1
         4        14     1
         4        32     1
         4        33     1
         4        38     1
         5         7     1
         5        15     1
         5        17     1
         5        37     1
         6        14     1
         6        16     1
         6        22     1
         6        32     1
         6        39     1
         7        10     1
         7        16     1
         7        20     1
         7        32     1
         7        35     1
         8        11     1
         8        18     1
         8        19     1
         8        21     1
         8        36     1
         9        12     1
         9        35     1
         9        40     1
         9        41     1
         9        42     1
         9        43     1
         9        44     1
        10        21     1
        10        34     1
        10        36     1
        10        41     1
        11        19     1
        11        20     1
        11        40     1
        12        18     1
        12        34     1
        13        16     1
        13        33     1
        13        38     1
        16        37     1
        17        24     1
        17        26     1
        17        28     1
        17        32     1
        17        33     1
        17        47     1
        18        21     1
        18        35     1
        19        42     1
        19        43     1
        19        44     1
        20        34     1
        20        40     1
        21        41     1
        22        25     1
        22        29     1
        22        30     1
        22        31     1
        22        45     1
        23        26     1
        23        39     1
        23        46     1
        23        47     1
        23        48     1
        23        49     1
        23        50     1
        24        27     1
        24        29     1
        24        30     1
        24        31     1
        25        28     1
        25        47     1
        26        45     1
        27        28     1
        27        39     1
        27        46     1
        28        45     1
        29        48     1
        29        49     1
        29        50     1
        30        48     1
        30        49     1
        30        50     1
        35        36     1
        37        38     1
        40        41     1
        45        46     1
