; ITP file created by ByteFF-ML, 2026-02-21 07:43:50.842183

[ atomtypes ]
;name           bonded.type        at.num        mass        charge   ptype           sigma         epsilon
 c0bf                                   6      0.0000       0.00000       A     3.31540e-01     4.13548e-01
 c1bf                                   6      0.0000       0.00000       A     3.31511e-01     4.13055e-01
 c2bf                                   6      0.0000       0.00000       A     3.31434e-01     4.14119e-01
 c3bf                                   6      0.0000       0.00000       A     3.31216e-01     4.10061e-01
 c4bf                                   6      0.0000       0.00000       A     3.31335e-01     4.12186e-01
 c5bf                                   6      0.0000       0.00000       A     3.31581e-01     4.11588e-01
 n6bf                                   7      0.0000       0.00000       A     3.38246e-01     3.93082e-01
 c7bf                                   6      0.0000       0.00000       A     3.31514e-01     4.13144e-01
 c8bf                                   6      0.0000       0.00000       A     3.31562e-01     4.13392e-01
 n9bf                                   7      0.0000       0.00000       A     3.38456e-01     3.92772e-01
 c10bf                                  6      0.0000       0.00000       A     3.31420e-01     4.09858e-01
 c11bf                                  6      0.0000       0.00000       A     3.31417e-01     4.13037e-01
 c12bf                                  6      0.0000       0.00000       A     3.31516e-01     4.13372e-01
 c13bf                                  6      0.0000       0.00000       A     3.31301e-01     4.13151e-01
 c14bf                                  6      0.0000       0.00000       A     3.31536e-01     4.12022e-01
 c15bf                                  6      0.0000       0.00000       A     3.31421e-01     4.12921e-01
 c16bf                                  6      0.0000       0.00000       A     3.31466e-01     4.13157e-01
 c17bf                                  6      0.0000       0.00000       A     3.31464e-01     4.12298e-01
 n18bf                                  7      0.0000       0.00000       A     3.20674e-01     8.54162e-01
 n19bf                                  7      0.0000       0.00000       A     3.19092e-01     8.90018e-01
 c20bf                                  6      0.0000       0.00000       A     3.39830e-01     4.50430e-01
 c21bf                                  6      0.0000       0.00000       A     3.31335e-01     4.12242e-01
 c22bf                                  6      0.0000       0.00000       A     3.31331e-01     4.10836e-01
 c23bf                                  6      0.0000       0.00000       A     3.31282e-01     4.13902e-01
 c24bf                                  6      0.0000       0.00000       A     3.31482e-01     4.12140e-01
 n25bf                                  7      0.0000       0.00000       A     3.38411e-01     3.93163e-01
 c26bf                                  6      0.0000       0.00000       A     3.31778e-01     4.11829e-01
 s27bf                                 16      0.0000       0.00000       A     4.06312e-01     2.53930e-01
 o28bf                                  8      0.0000       0.00000       A     3.04857e-01     6.11370e-01
 o29bf                                  8      0.0000       0.00000       A     3.04857e-01     6.11370e-01
 c30bf                                  6      0.0000       0.00000       A     3.39611e-01     4.49156e-01
 c31bf                                  6      0.0000       0.00000       A     3.39795e-01     4.48500e-01
 h32bf                                  1      0.0000       0.00000       A     2.62415e-01     6.77595e-02
 h33bf                                  1      0.0000       0.00000       A     2.62560e-01     6.77643e-02
 h34bf                                  1      0.0000       0.00000       A     2.53506e-01     6.72855e-02
 h35bf                                  1      0.0000       0.00000       A     2.53506e-01     6.72855e-02
 h36bf                                  1      0.0000       0.00000       A     2.62523e-01     6.73238e-02
 h37bf                                  1      0.0000       0.00000       A     2.62498e-01     6.69232e-02
 h38bf                                  1      0.0000       0.00000       A     2.62405e-01     6.76334e-02
 h39bf                                  1      0.0000       0.00000       A     2.62695e-01     6.74962e-02
 h40bf                                  1      0.0000       0.00000       A     2.53862e-01     6.73015e-02
 h41bf                                  1      0.0000       0.00000       A     2.41969e-01     8.74279e-02
 h42bf                                  1      0.0000       0.00000       A     2.41969e-01     8.74279e-02
 h43bf                                  1      0.0000       0.00000       A     2.41969e-01     8.74279e-02
 h44bf                                  1      0.0000       0.00000       A     2.62744e-01     6.79622e-02
 h45bf                                  1      0.0000       0.00000       A     2.53644e-01     6.69998e-02
 h46bf                                  1      0.0000       0.00000       A     2.53622e-01     6.80500e-02
 h47bf                                  1      0.0000       0.00000       A     2.42021e-01     8.71597e-02
 h48bf                                  1      0.0000       0.00000       A     2.42021e-01     8.71597e-02
 h49bf                                  1      0.0000       0.00000       A     2.42021e-01     8.71597e-02
 h50bf                                  1      0.0000       0.00000       A     2.41815e-01     8.73720e-02
 h51bf                                  1      0.0000       0.00000       A     2.41815e-01     8.73720e-02
 h52bf                                  1      0.0000       0.00000       A     2.41815e-01     8.73720e-02

[ moleculetype ]
;name             nrexcl
 36                    3

[ atoms ]
;       nr            type      resi   res      atom      cgnr      charge          mass ; qtot
         1            c0bf         1   UNL        c0         1    -0.13269       12.0110 ; qtot   -0.133
         2            c1bf         1   UNL        c1         2     0.31011       12.0110 ; qtot    0.177
         3            c2bf         1   UNL        c2         3    -0.13024       12.0110 ; qtot    0.047
         4            c3bf         1   UNL        c3         4     0.02798       12.0110 ; qtot    0.075
         5            c4bf         1   UNL        c4         5     0.24819       12.0110 ; qtot    0.323
         6            c5bf         1   UNL        c5         6     0.22185       12.0110 ; qtot    0.545
         7            n6bf         1   UNL        n6         7    -0.62228       14.0070 ; qtot   -0.077
         8            c7bf         1   UNL        c7         8     0.29317       12.0110 ; qtot    0.216
         9            c8bf         1   UNL        c8         9     0.29405       12.0110 ; qtot    0.510
        10            n9bf         1   UNL        n9        10    -0.62188       14.0070 ; qtot   -0.112
        11           c10bf         1   UNL       c10        11    -0.02719       12.0110 ; qtot   -0.139
        12           c11bf         1   UNL       c11        12    -0.11542       12.0110 ; qtot   -0.254
        13           c12bf         1   UNL       c12        13    -0.07162       12.0110 ; qtot   -0.326
        14           c13bf         1   UNL       c13        14    -0.10478       12.0110 ; qtot   -0.431
        15           c14bf         1   UNL       c14        15    -0.04872       12.0110 ; qtot   -0.479
        16           c15bf         1   UNL       c15        16    -0.09246       12.0110 ; qtot   -0.572
        17           c16bf         1   UNL       c16        17    -0.24093       12.0110 ; qtot   -0.813
        18           c17bf         1   UNL       c17        18    -0.14808       12.0110 ; qtot   -0.961
        19           n18bf         1   UNL       n18        19    -0.10934       14.0070 ; qtot   -1.070
        20           n19bf         1   UNL       n19        20    -0.82031       14.0070 ; qtot   -1.891
        21           c20bf         1   UNL       c20        21     0.06426       12.0110 ; qtot   -1.826
        22           c21bf         1   UNL       c21        22     0.30071       12.0110 ; qtot   -1.526
        23           c22bf         1   UNL       c22        23    -0.20682       12.0110 ; qtot   -1.732
        24           c23bf         1   UNL       c23        24    -0.05870       12.0110 ; qtot   -1.791
        25           c24bf         1   UNL       c24        25     0.29533       12.0110 ; qtot   -1.496
        26           n25bf         1   UNL       n25        26    -0.61064       14.0070 ; qtot   -2.106
        27           c26bf         1   UNL       c26        27     0.30032       12.0110 ; qtot   -1.806
        28           s27bf         1   UNL       s27        28     0.98862       32.0670 ; qtot   -0.818
        29           o28bf         1   UNL       o28        29    -0.50964       15.9990 ; qtot   -1.327
        30           o29bf         1   UNL       o29        30    -0.50964       15.9990 ; qtot   -1.837
        31           c30bf         1   UNL       c30        31    -0.29585       12.0110 ; qtot   -2.133
        32           c31bf         1   UNL       c31        32     0.20183       12.0110 ; qtot   -1.931
        33           h32bf         1   UNL       h32        33     0.14287        1.0080 ; qtot   -1.788
        34           h33bf         1   UNL       h33        34     0.12627        1.0080 ; qtot   -1.662
        35           h34bf         1   UNL       h34        35     0.03158        1.0080 ; qtot   -1.630
        36           h35bf         1   UNL       h35        36     0.03160        1.0080 ; qtot   -1.598
        37           h36bf         1   UNL       h36        37     0.12044        1.0080 ; qtot   -1.478
        38           h37bf         1   UNL       h37        38     0.11787        1.0080 ; qtot   -1.360
        39           h38bf         1   UNL       h38        39     0.12602        1.0080 ; qtot   -1.234
        40           h39bf         1   UNL       h39        40     0.20439        1.0080 ; qtot   -1.030
        41           h40bf         1   UNL       h40        41     0.20730        1.0080 ; qtot   -0.822
        42           h41bf         1   UNL       h41        42     0.04880        1.0080 ; qtot   -0.774
        43           h42bf         1   UNL       h42        43     0.04880        1.0080 ; qtot   -0.725
        44           h43bf         1   UNL       h43        44     0.04880        1.0080 ; qtot   -0.676
        45           h44bf         1   UNL       h44        45     0.15276        1.0080 ; qtot   -0.523
        46           h45bf         1   UNL       h45        46     0.03700        1.0080 ; qtot   -0.486
        47           h46bf         1   UNL       h46        47     0.03625        1.0080 ; qtot   -0.450
        48           h47bf         1   UNL       h47        48     0.10467        1.0080 ; qtot   -0.345
        49           h48bf         1   UNL       h48        49     0.10467        1.0080 ; qtot   -0.241
        50           h49bf         1   UNL       h49        50     0.10467        1.0080 ; qtot   -0.136
        51           h50bf         1   UNL       h50        51     0.04535        1.0080 ; qtot   -0.091
        52           h51bf         1   UNL       h51        52     0.04535        1.0080 ; qtot   -0.045
        53           h52bf         1   UNL       h52        53     0.04535        1.0080 ; qtot   -0.000

[ bonds ]
;       ai        aj funct               r               k
         1         2     1        0.138860   319079.465381
         1         5     1        0.141488   283875.334326
         1        33     1        0.108347   326202.684521
         2         3     1        0.142380   248922.462891
         2        20     1        0.140982   246171.937451
         3         4     1        0.138583   331381.865674
         3        34     1        0.108336   323406.856250
         4         6     1        0.143400   237902.587305
         4        11     1        0.148430   212912.240210
         5         6     1        0.143346   224513.148877
         5        10     1        0.136696   270668.281934
         6         7     1        0.136378   268382.250977
         7         8     1        0.131881   374103.202393
         8         9     1        0.142216   238192.510107
         8        35     1        0.108820   315940.162988
         9        10     1        0.131846   380187.239941
         9        36     1        0.108836   315483.763770
        11        12     1        0.142023   258564.560352
        11        14     1        0.140177   290488.679541
        12        13     1        0.138890   334507.684473
        12        37     1        0.108507   320582.503027
        13        16     1        0.140748   301486.669824
        13        38     1        0.108659   317447.771777
        14        15     1        0.139784   309529.914404
        14        39     1        0.108455   321154.636426
        15        16     1        0.142620   240876.690137
        15        19     1        0.138337   262427.661035
        16        17     1        0.143732   250154.756104
        17        18     1        0.137637   378975.044434
        17        40     1        0.108169   334460.823877
        18        19     1        0.138674   275419.154687
        18        41     1        0.108218   333100.385449
        19        21     1        0.145037   228862.935791
        20        22     1        0.141488   246971.683105
        20        32     1        0.146833   195238.274951
        21        42     1        0.109354   299824.280615
        21        43     1        0.109354   299824.280615
        21        44     1        0.109354   299824.280615
        22        23     1        0.140741   271375.455566
        22        27     1        0.140763   268458.811230
        23        24     1        0.139521   308613.157715
        23        28     1        0.182137   117043.582202
        24        25     1        0.139580   297567.591797
        24        45     1        0.108435   326984.860645
        25        26     1        0.133956   314981.525439
        25        46     1        0.108702   319547.177539
        26        27     1        0.133504   335746.847168
        27        47     1        0.108661   319273.598486
        28        29     1        0.147286   500110.782422
        28        30     1        0.147286   500110.782422
        28        31     1        0.180678   140601.910352
        31        48     1        0.109028   319230.108789
        31        49     1        0.109028   319230.108789
        31        50     1        0.109028   319230.108789
        32        51     1        0.109334   300087.746973
        32        52     1        0.109334   300087.746973
        32        53     1        0.109334   300087.746973

[ angles ]
;       ai        aj        ak funct           theta             cth
         1         2         3     1      118.824120      657.490931
         1         2        20     1      121.484596      445.764641
         1         5         6     1      120.659081      664.162629
         1         5        10     1      118.302307      437.946710
         2         1         5     1      120.728516      557.039690
         2         1        33     1      121.982887      418.597849
         2         3         4     1      122.720016      704.752843
         2         3        34     1      118.647316      444.852359
         2        20        22     1      118.922707      456.303806
         2        20        32     1      118.303635      534.097247
         3         2        20     1      119.669739      487.897711
         3         4         6     1      118.319481      536.718024
         3         4        11     1      119.148361      470.420528
         4         3        34     1      118.477089      415.921113
         4         6         5     1      118.896439      698.083316
         4         6         7     1      120.419662      430.279161
         4        11        12     1      119.989174      510.131021
         4        11        14     1      120.148094      425.011973
         5         1        33     1      117.475632      437.078768
         5         6         7     1      120.188110      782.916635
         5        10         9     1      116.643250      557.637641
         6         4        11     1      122.706131      442.773128
         6         5        10     1      121.350357      706.985999
         6         7         8     1      117.611557      602.010986
         7         8         9     1      122.256546      732.863901
         7         8        35     1      117.339157      362.478902
         8         9        10     1      122.299545      738.442163
         8         9        36     1      120.145851      429.987368
         9         8        35     1      120.142014      430.475797
        10         9        36     1      117.380966      342.428057
        11        12        13     1      121.801224      641.863880
        11        12        37     1      118.687279      420.254569
        11        14        15     1      118.398575      751.074478
        11        14        39     1      120.057411      403.248833
        12        11        14     1      119.636536      629.940923
        12        13        16     1      119.249611      721.006127
        12        13        38     1      120.280472      430.417668
        13        12        37     1      119.736038      414.498728
        13        16        15     1      118.372032      712.683903
        13        16        17     1      134.867035      476.020082
        14        15        16     1      122.437134      653.014148
        14        15        19     1      129.874054      438.808396
        15        14        39     1      121.695938      415.416116
        15        16        17     1      106.661888      331.741160
        15        19        18     1      108.453735      401.502669
        15        19        21     1      125.119263      518.958401
        16        13        38     1      120.565613      437.227138
        16        15        19     1      107.846840      167.360000
        16        17        18     1      106.844933      436.901987
        16        17        40     1      127.302994      394.236308
        17        18        19     1      110.138916      213.458281
        17        18        41     1      129.977615      347.479457
        18        17        40     1      125.794395      397.722794
        18        19        21     1      126.406151      427.630292
        19        18        41     1      120.093422      439.489056
        19        21        42     1      110.346970      460.989003
        19        21        43     1      110.346970      460.989003
        19        21        44     1      110.346970      460.989003
        20        22        23     1      122.023315      420.085832
        20        22        27     1      121.549011      490.600112
        20        32        51     1      110.253494      456.694875
        20        32        52     1      110.253494      456.694875
        20        32        53     1      110.253494      456.694875
        22        20        32     1      117.389915      507.495655
        22        23        24     1      120.230835      711.229053
        22        23        28     1      121.838196      684.148417
        22        27        26     1      124.572205      724.141254
        22        27        47     1      119.087486      403.473113
        23        22        27     1      116.036423      701.147067
        23        24        25     1      118.566246      714.188358
        23        24        45     1      120.252609      341.562477
        23        28        29     1      107.617752      627.610789
        23        28        30     1      107.617752      627.610789
        23        28        31     1      103.715164      662.743978
        24        23        28     1      116.862427      554.005818
        24        25        26     1      122.969460      735.407780
        24        25        46     1      120.389832      412.696957
        25        24        45     1      121.463943      425.428387
        25        26        27     1      117.810593      709.807211
        26        25        46     1      116.436546      357.797662
        26        27        47     1      116.477577      346.848499
        28        31        48     1      107.623169      571.210423
        28        31        49     1      107.623169      571.210423
        28        31        50     1      107.623169      571.210423
        29        28        30     1      120.314926      744.282309
        29        28        31     1      107.740967      733.619544
        30        28        31     1      107.740967      733.619544
        42        21        43     1      108.719864      352.472281
        42        21        44     1      108.719864      352.472281
        43        21        44     1      108.719864      352.472281
        48        31        49     1      111.147987      344.776258
        48        31        50     1      111.147987      344.776258
        49        31        50     1      111.147987      344.776258
        51        32        52     1      108.611404      348.634245
        51        32        53     1      108.611404      348.634245
        52        32        53     1      108.611404      348.634245

[ dihedrals ] ; propers for gromacs 4.5 or higher, use funct 9
;       ai        aj        ak        al funct           phase               k        pn
         1         2         3         4     9        0.000000        0.104047         1
         1         2         3         4     9      180.000000       13.908745         2
         1         2         3         4     9        0.000000       -0.780061         3
         1         2         3         4     9      180.000000       -0.152640         4
         1         2         3        34     9        0.000000        0.017131         1
         1         2         3        34     9      180.000000       11.731009         2
         1         2         3        34     9        0.000000       -0.438719         3
         1         2         3        34     9      180.000000        0.083336         4
         1         2        20        22     9        0.000000        0.620183         1
         1         2        20        22     9      180.000000        4.398258         2
         1         2        20        22     9        0.000000       -0.113518         3
         1         2        20        22     9      180.000000        0.017860         4
         1         2        20        32     9        0.000000       -0.324646         1
         1         2        20        32     9      180.000000        5.791160         2
         1         2        20        32     9        0.000000       -0.582389         3
         1         2        20        32     9      180.000000        0.515837         4
         1         5         6         4     9        0.000000        0.063864         1
         1         5         6         4     9      180.000000       11.515490         2
         1         5         6         4     9        0.000000       -0.468890         3
         1         5         6         4     9      180.000000       -0.246943         4
         1         5         6         7     9        0.000000        0.269642         1
         1         5         6         7     9      180.000000       11.210488         2
         1         5         6         7     9        0.000000       -0.094299         3
         1         5         6         7     9      180.000000       -0.252827         4
         1         5        10         9     9        0.000000       -0.065194         1
         1         5        10         9     9      180.000000       18.453161         2
         1         5        10         9     9        0.000000        0.128637         3
         1         5        10         9     9      180.000000       -0.325308         4
         2         1         5         6     9        0.000000       -0.870258         1
         2         1         5         6     9      180.000000       13.008211         2
         2         1         5         6     9        0.000000       -0.983985         3
         2         1         5         6     9      180.000000       -0.115121         4
         2         1         5        10     9        0.000000       -0.187265         1
         2         1         5        10     9      180.000000       13.417291         2
         2         1         5        10     9        0.000000       -0.228286         3
         2         1         5        10     9      180.000000       -0.385980         4
         2         3         4         6     9        0.000000       -0.265631         1
         2         3         4         6     9      180.000000       18.717771         2
         2         3         4         6     9        0.000000       -1.353283         3
         2         3         4         6     9      180.000000       -0.294416         4
         2         3         4        11     9        0.000000        0.185861         1
         2         3         4        11     9      180.000000       19.060773         2
         2         3         4        11     9        0.000000        0.041413         3
         2         3         4        11     9      180.000000       -0.679149         4
         2        20        22        23     9        0.000000        0.435095         1
         2        20        22        23     9      180.000000        6.208915         2
         2        20        22        23     9        0.000000       -0.570732         3
         2        20        22        23     9      180.000000        0.191608         4
         2        20        22        27     9        0.000000        1.150635         1
         2        20        22        27     9      180.000000        4.357298         2
         2        20        22        27     9        0.000000       -0.338120         3
         2        20        22        27     9      180.000000        0.143401         4
         2        20        32        51     9        0.000000       -0.050505         1
         2        20        32        51     9      180.000000       -0.027567         2
         2        20        32        51     9        0.000000        0.646089         3
         2        20        32        51     9      180.000000        0.012634         4
         2        20        32        52     9        0.000000       -0.050505         1
         2        20        32        52     9      180.000000       -0.027567         2
         2        20        32        52     9        0.000000        0.646089         3
         2        20        32        52     9      180.000000        0.012634         4
         2        20        32        53     9        0.000000       -0.050505         1
         2        20        32        53     9      180.000000       -0.027567         2
         2        20        32        53     9        0.000000        0.646089         3
         2        20        32        53     9      180.000000        0.012634         4
         3         2         1         5     9        0.000000       -0.279967         1
         3         2         1         5     9      180.000000       17.214885         2
         3         2         1         5     9        0.000000       -1.260607         3
         3         2         1         5     9      180.000000       -0.299139         4
         3         2         1        33     9        0.000000        0.014062         1
         3         2         1        33     9      180.000000       13.393607         2
         3         2         1        33     9        0.000000       -0.413944         3
         3         2         1        33     9      180.000000        0.119140         4
         3         2        20        22     9        0.000000        0.499561         1
         3         2        20        22     9      180.000000        4.636772         2
         3         2        20        22     9        0.000000        0.183243         3
         3         2        20        22     9      180.000000       -0.040677         4
         3         2        20        32     9        0.000000        0.170610         1
         3         2        20        32     9      180.000000        5.722839         2
         3         2        20        32     9        0.000000        0.044635         3
         3         2        20        32     9      180.000000        0.595267         4
         3         4         6         5     9        0.000000       -0.439494         1
         3         4         6         5     9      180.000000       11.082358         2
         3         4         6         5     9        0.000000       -0.939209         3
         3         4         6         5     9      180.000000       -0.006599         4
         3         4         6         7     9        0.000000       -0.079875         1
         3         4         6         7     9      180.000000        9.421866         2
         3         4         6         7     9        0.000000       -0.287464         3
         3         4         6         7     9      180.000000       -0.030733         4
         3         4        11        12     9        0.000000       -0.624954         1
         3         4        11        12     9      180.000000        4.639804         2
         3         4        11        12     9        0.000000       -0.091512         3
         3         4        11        12     9      180.000000        0.678903         4
         3         4        11        14     9        0.000000       -0.417052         1
         3         4        11        14     9      180.000000        4.562992         2
         3         4        11        14     9        0.000000        0.110813         3
         3         4        11        14     9      180.000000        0.592662         4
         4         3         2        20     9        0.000000        0.295550         1
         4         3         2        20     9      180.000000       14.721893         2
         4         3         2        20     9        0.000000        0.364527         3
         4         3         2        20     9      180.000000       -0.442540         4
         4         6         5        10     9        0.000000       -0.304827         1
         4         6         5        10     9      180.000000       10.009887         2
         4         6         5        10     9        0.000000        0.118293         3
         4         6         5        10     9      180.000000       -0.272192         4
         4         6         7         8     9        0.000000        0.601469         1
         4         6         7         8     9      180.000000       16.474446         2
         4         6         7         8     9        0.000000        0.410343         3
         4         6         7         8     9      180.000000       -0.375212         4
         4        11        12        13     9        0.000000        0.262082         1
         4        11        12        13     9      180.000000       14.141196         2
         4        11        12        13     9        0.000000       -0.097393         3
         4        11        12        13     9      180.000000       -0.165357         4
         4        11        12        37     9        0.000000       -0.032927         1
         4        11        12        37     9      180.000000       12.502728         2
         4        11        12        37     9        0.000000       -0.217777         3
         4        11        12        37     9      180.000000        0.145343         4
         4        11        14        15     9        0.000000        0.118196         1
         4        11        14        15     9      180.000000       17.021850         2
         4        11        14        15     9        0.000000        0.093771         3
         4        11        14        15     9      180.000000       -0.606682         4
         4        11        14        39     9        0.000000       -0.043957         1
         4        11        14        39     9      180.000000       12.683649         2
         4        11        14        39     9        0.000000       -0.106167         3
         4        11        14        39     9      180.000000        0.144826         4
         5         1         2        20     9        0.000000        0.470372         1
         5         1         2        20     9      180.000000       19.704100         2
         5         1         2        20     9        0.000000        0.450712         3
         5         1         2        20     9      180.000000       -0.930071         4
         5         6         4        11     9        0.000000        0.097427         1
         5         6         4        11     9      180.000000       12.775687         2
         5         6         4        11     9        0.000000       -0.005882         3
         5         6         4        11     9      180.000000       -0.470083         4
         5         6         7         8     9        0.000000        0.190624         1
         5         6         7         8     9      180.000000       16.970614         2
         5         6         7         8     9        0.000000       -0.103812         3
         5         6         7         8     9      180.000000       -0.231431         4
         5        10         9         8     9        0.000000       -0.160967         1
         5        10         9         8     9      180.000000       25.829072         2
         5        10         9         8     9        0.000000       -1.008464         3
         5        10         9         8     9      180.000000       -0.186862         4
         5        10         9        36     9        0.000000        0.852859         1
         5        10         9        36     9      180.000000       23.633162         2
         5        10         9        36     9        0.000000        0.094130         3
         5        10         9        36     9      180.000000       -0.467389         4
         6         4         3        34     9        0.000000        0.167817         1
         6         4         3        34     9      180.000000       15.259407         2
         6         4         3        34     9        0.000000       -0.352265         3
         6         4         3        34     9      180.000000        0.209495         4
         6         4        11        12     9        0.000000       -0.061152         1
         6         4        11        12     9      180.000000        4.222243         2
         6         4        11        12     9        0.000000       -0.039068         3
         6         4        11        12     9      180.000000        0.777239         4
         6         4        11        14     9        0.000000       -0.450403         1
         6         4        11        14     9      180.000000        4.258047         2
         6         4        11        14     9        0.000000       -0.220605         3
         6         4        11        14     9      180.000000        0.836412         4
         6         5         1        33     9        0.000000       -0.159134         1
         6         5         1        33     9      180.000000       10.515410         2
         6         5         1        33     9        0.000000       -0.259829         3
         6         5         1        33     9      180.000000        0.039392         4
         6         5        10         9     9        0.000000       -0.109375         1
         6         5        10         9     9      180.000000       16.435486         2
         6         5        10         9     9        0.000000        0.065430         3
         6         5        10         9     9      180.000000       -0.229680         4
         6         7         8         9     9        0.000000        0.103245         1
         6         7         8         9     9      180.000000       25.050131         2
         6         7         8         9     9        0.000000       -0.948796         3
         6         7         8         9     9      180.000000       -0.159021         4
         6         7         8        35     9        0.000000        0.727425         1
         6         7         8        35     9      180.000000       22.903268         2
         6         7         8        35     9        0.000000        0.106514         3
         6         7         8        35     9      180.000000       -0.552430         4
         7         6         4        11     9        0.000000       -0.554851         1
         7         6         4        11     9      180.000000       12.441256         2
         7         6         4        11     9        0.000000       -0.174967         3
         7         6         4        11     9      180.000000       -0.472037         4
         7         6         5        10     9        0.000000        0.180957         1
         7         6         5        10     9      180.000000       10.941526         2
         7         6         5        10     9        0.000000        0.166095         3
         7         6         5        10     9      180.000000       -0.379214         4
         7         8         9        10     9        0.000000       -0.713203         1
         7         8         9        10     9      180.000000       11.742392         2
         7         8         9        10     9        0.000000       -0.552181         3
         7         8         9        10     9      180.000000       -0.521535         4
         7         8         9        36     9        0.000000       -0.026031         1
         7         8         9        36     9      180.000000        9.508286         2
         7         8         9        36     9        0.000000       -0.255749         3
         7         8         9        36     9      180.000000       -0.134502         4
        10         5         1        33     9        0.000000        0.021339         1
        10         5         1        33     9      180.000000       12.047564         2
        10         5         1        33     9        0.000000       -0.351384         3
        10         5         1        33     9      180.000000       -0.023515         4
        10         9         8        35     9        0.000000       -0.199022         1
        10         9         8        35     9      180.000000        9.267615         2
        10         9         8        35     9        0.000000       -0.318099         3
        10         9         8        35     9      180.000000       -0.090079         4
        11         4         3        34     9        0.000000       -0.054184         1
        11         4         3        34     9      180.000000       14.758245         2
        11         4         3        34     9        0.000000       -0.165446         3
        11         4         3        34     9      180.000000        0.121902         4
        11        12        13        16     9        0.000000       -0.118288         1
        11        12        13        16     9      180.000000       21.128618         2
        11        12        13        16     9        0.000000       -1.641639         3
        11        12        13        16     9      180.000000       -0.503143         4
        11        12        13        38     9        0.000000        0.009880         1
        11        12        13        38     9      180.000000       15.243821         2
        11        12        13        38     9        0.000000       -0.469502         3
        11        12        13        38     9      180.000000        0.094909         4
        11        14        15        16     9        0.000000       -0.017252         1
        11        14        15        16     9      180.000000       17.488271         2
        11        14        15        16     9        0.000000       -1.598856         3
        11        14        15        16     9      180.000000       -0.379347         4
        11        14        15        19     9        0.000000        0.196074         1
        11        14        15        19     9      180.000000       15.844593         2
        11        14        15        19     9        0.000000       -0.300946         3
        11        14        15        19     9      180.000000       -0.376237         4
        12        11        14        15     9        0.000000       -0.183449         1
        12        11        14        15     9      180.000000       20.850224         2
        12        11        14        15     9        0.000000       -1.683316         3
        12        11        14        15     9      180.000000       -0.513113         4
        12        11        14        39     9        0.000000        0.060950         1
        12        11        14        39     9      180.000000       13.908896         2
        12        11        14        39     9        0.000000       -0.456522         3
        12        11        14        39     9      180.000000        0.109681         4
        12        13        16        15     9        0.000000       -0.078279         1
        12        13        16        15     9      180.000000       19.312299         2
        12        13        16        15     9        0.000000       -2.075099         3
        12        13        16        15     9      180.000000       -0.384435         4
        12        13        16        17     9        0.000000        0.118318         1
        12        13        16        17     9      180.000000       13.391727         2
        12        13        16        17     9        0.000000       -0.511419         3
        12        13        16        17     9      180.000000       -0.145206         4
        13        12        11        14     9        0.000000       -0.065410         1
        13        12        11        14     9      180.000000       17.441544         2
        13        12        11        14     9        0.000000       -1.329842         3
        13        12        11        14     9      180.000000       -0.337279         4
        13        16        15        14     9        0.000000       -0.133893         1
        13        16        15        14     9      180.000000       10.794701         2
        13        16        15        14     9        0.000000       -1.527214         3
        13        16        15        14     9      180.000000       -0.100381         4
        13        16        15        19     9        0.000000        0.487087         1
        13        16        15        19     9      180.000000       11.126998         2
        13        16        15        19     9        0.000000       -2.247677         3
        13        16        15        19     9      180.000000       -0.106315         4
        13        16        17        18     9        0.000000        0.355092         1
        13        16        17        18     9      180.000000        4.201618         2
        13        16        17        18     9        0.000000       -0.563694         3
        13        16        17        18     9      180.000000        0.008346         4
        13        16        17        40     9        0.000000       -0.623804         1
        13        16        17        40     9      180.000000        4.278390         2
        13        16        17        40     9        0.000000       -0.168310         3
        13        16        17        40     9      180.000000        0.142292         4
        14        11        12        37     9        0.000000        0.068411         1
        14        11        12        37     9      180.000000       13.347190         2
        14        11        12        37     9        0.000000       -0.612319         3
        14        11        12        37     9      180.000000        0.142637         4
        14        15        16        17     9        0.000000        0.248175         1
        14        15        16        17     9      180.000000        9.818867         2
        14        15        16        17     9        0.000000       -1.629277         3
        14        15        16        17     9      180.000000        0.022165         4
        14        15        19        18     9        0.000000        0.500542         1
        14        15        19        18     9      180.000000        3.128844         2
        14        15        19        18     9        0.000000        0.183652         3
        14        15        19        18     9      180.000000        0.149882         4
        14        15        19        21     9        0.000000       -0.573621         1
        14        15        19        21     9      180.000000        2.163895         2
        14        15        19        21     9        0.000000       -0.138617         3
        14        15        19        21     9      180.000000        0.234159         4
        15        16        13        38     9        0.000000        0.129794         1
        15        16        13        38     9      180.000000       13.454266         2
        15        16        13        38     9        0.000000       -0.407698         3
        15        16        13        38     9      180.000000       -0.071090         4
        15        16        17        18     9        0.000000       -0.144250         1
        15        16        17        18     9      180.000000       27.856906         2
        15        16        17        18     9        0.000000       -8.906379         3
        15        16        17        18     9      180.000000       -0.172844         4
        15        16        17        40     9        0.000000        0.524513         1
        15        16        17        40     9      180.000000       10.013757         2
        15        16        17        40     9        0.000000        0.306404         3
        15        16        17        40     9      180.000000       -0.273153         4
        15        19        18        17     9        0.000000        0.071987         1
        15        19        18        17     9      180.000000       24.295210         2
        15        19        18        17     9        0.000000       -6.032990         3
        15        19        18        17     9      180.000000       -0.546083         4
        15        19        18        41     9        0.000000        1.179453         1
        15        19        18        41     9      180.000000        9.792244         2
        15        19        18        41     9        0.000000        0.433460         3
        15        19        18        41     9      180.000000       -0.227068         4
        15        19        21        42     9        0.000000       -0.029670         1
        15        19        21        42     9      180.000000        0.037189         2
        15        19        21        42     9        0.000000        0.648893         3
        15        19        21        42     9      180.000000        0.010602         4
        15        19        21        43     9        0.000000       -0.029670         1
        15        19        21        43     9      180.000000        0.037189         2
        15        19        21        43     9        0.000000        0.648893         3
        15        19        21        43     9      180.000000        0.010602         4
        15        19        21        44     9        0.000000       -0.029670         1
        15        19        21        44     9      180.000000        0.037189         2
        15        19        21        44     9        0.000000        0.648893         3
        15        19        21        44     9      180.000000        0.010602         4
        16        13        12        37     9        0.000000        0.095400         1
        16        13        12        37     9      180.000000       16.437461         2
        16        13        12        37     9        0.000000       -0.519789         3
        16        13        12        37     9      180.000000       -0.017390         4
        16        15        14        39     9        0.000000        0.110456         1
        16        15        14        39     9      180.000000       12.495681         2
        16        15        14        39     9        0.000000       -0.150763         3
        16        15        14        39     9      180.000000       -0.026669         4
        16        15        19        18     9        0.000000       -0.044930         1
        16        15        19        18     9      180.000000       21.153657         2
        16        15        19        18     9        0.000000       -5.745466         3
        16        15        19        18     9      180.000000       -0.067604         4
        16        15        19        21     9        0.000000        0.115831         1
        16        15        19        21     9      180.000000        2.619975         2
        16        15        19        21     9        0.000000        0.721152         3
        16        15        19        21     9      180.000000        0.210197         4
        16        17        18        19     9        0.000000       -0.260769         1
        16        17        18        19     9      180.000000       31.849324         2
        16        17        18        19     9        0.000000       -6.215833         3
        16        17        18        19     9      180.000000       -0.787799         4
        16        17        18        41     9        0.000000        0.028299         1
        16        17        18        41     9      180.000000       17.079476         2
        16        17        18        41     9        0.000000       -0.319769         3
        16        17        18        41     9      180.000000       -0.381525         4
        17        16        13        38     9        0.000000       -0.042377         1
        17        16        13        38     9      180.000000       10.471313         2
        17        16        13        38     9        0.000000        0.025302         3
        17        16        13        38     9      180.000000        0.084200         4
        17        16        15        19     9        0.000000        0.328899         1
        17        16        15        19     9      180.000000       18.442128         2
        17        16        15        19     9        0.000000       -5.909619         3
        17        16        15        19     9      180.000000       -0.307641         4
        17        18        19        21     9        0.000000        0.366988         1
        17        18        19        21     9      180.000000        4.347227         2
        17        18        19        21     9        0.000000        0.693744         3
        17        18        19        21     9      180.000000        0.283870         4
        18        19        21        42     9        0.000000       -0.051100         1
        18        19        21        42     9      180.000000       -0.000828         2
        18        19        21        42     9        0.000000        0.314565         3
        18        19        21        42     9      180.000000        0.005469         4
        18        19        21        43     9        0.000000       -0.051100         1
        18        19        21        43     9      180.000000       -0.000828         2
        18        19        21        43     9        0.000000        0.314565         3
        18        19        21        43     9      180.000000        0.005469         4
        18        19        21        44     9        0.000000       -0.051100         1
        18        19        21        44     9      180.000000       -0.000828         2
        18        19        21        44     9        0.000000        0.314565         3
        18        19        21        44     9      180.000000        0.005469         4
        19        15        14        39     9        0.000000        0.216516         1
        19        15        14        39     9      180.000000       11.255693         2
        19        15        14        39     9        0.000000       -0.046908         3
        19        15        14        39     9      180.000000        0.106758         4
        19        18        17        40     9        0.000000       -0.078117         1
        19        18        17        40     9      180.000000       15.996350         2
        19        18        17        40     9        0.000000       -0.292963         3
        19        18        17        40     9      180.000000       -0.324606         4
        20         2         1        33     9        0.000000        0.188146         1
        20         2         1        33     9      180.000000       14.850883         2
        20         2         1        33     9        0.000000        0.132164         3
        20         2         1        33     9      180.000000        0.047078         4
        20         2         3        34     9        0.000000        0.127989         1
        20         2         3        34     9      180.000000       13.537653         2
        20         2         3        34     9        0.000000        0.062346         3
        20         2         3        34     9      180.000000        0.027081         4
        20        22        23        24     9        0.000000        0.636478         1
        20        22        23        24     9      180.000000       15.599261         2
        20        22        23        24     9        0.000000        0.313392         3
        20        22        23        24     9      180.000000       -0.332608         4
        20        22        23        28     9        0.000000       -0.950108         1
        20        22        23        28     9      180.000000       12.449050         2
        20        22        23        28     9        0.000000       -0.063023         3
        20        22        23        28     9      180.000000       -0.648619         4
        20        22        27        26     9        0.000000        0.218553         1
        20        22        27        26     9      180.000000       17.280399         2
        20        22        27        26     9        0.000000        0.334071         3
        20        22        27        26     9      180.000000       -0.747535         4
        20        22        27        47     9        0.000000       -0.097427         1
        20        22        27        47     9      180.000000       14.373854         2
        20        22        27        47     9        0.000000       -0.023178         3
        20        22        27        47     9      180.000000        0.019358         4
        21        19        18        41     9        0.000000       -0.501732         1
        21        19        18        41     9      180.000000        1.998448         2
        21        19        18        41     9        0.000000        0.284959         3
        21        19        18        41     9      180.000000       -0.030005         4
        22        20        32        51     9        0.000000       -0.062078         1
        22        20        32        51     9      180.000000        0.029851         2
        22        20        32        51     9        0.000000        0.489812         3
        22        20        32        51     9      180.000000        0.011401         4
        22        20        32        52     9        0.000000       -0.062078         1
        22        20        32        52     9      180.000000        0.029851         2
        22        20        32        52     9        0.000000        0.489812         3
        22        20        32        52     9      180.000000        0.011401         4
        22        20        32        53     9        0.000000       -0.062078         1
        22        20        32        53     9      180.000000        0.029851         2
        22        20        32        53     9        0.000000        0.489812         3
        22        20        32        53     9      180.000000        0.011401         4
        22        23        24        25     9        0.000000       -0.164525         1
        22        23        24        25     9      180.000000       18.605470         2
        22        23        24        25     9        0.000000       -2.385549         3
        22        23        24        25     9      180.000000       -0.336144         4
        22        23        24        45     9        0.000000        0.506417         1
        22        23        24        45     9      180.000000       15.018304         2
        22        23        24        45     9        0.000000       -0.419962         3
        22        23        24        45     9      180.000000       -0.064895         4
        22        23        28        29     9        0.000000       -1.714383         1
        22        23        28        29     9      180.000000        0.467624         2
        22        23        28        29     9        0.000000        0.341144         3
        22        23        28        29     9      180.000000       -0.084978         4
        22        23        28        30     9        0.000000       -1.714383         1
        22        23        28        30     9      180.000000        0.467624         2
        22        23        28        30     9        0.000000        0.341144         3
        22        23        28        30     9      180.000000       -0.084978         4
        22        23        28        31     9        0.000000        7.064750         1
        22        23        28        31     9      180.000000       -3.259288         2
        22        23        28        31     9        0.000000        0.193806         3
        22        23        28        31     9      180.000000        0.642314         4
        22        27        26        25     9        0.000000        0.140096         1
        22        27        26        25     9      180.000000       22.087728         2
        22        27        26        25     9        0.000000       -0.871173         3
        22        27        26        25     9      180.000000        0.110598         4
        23        22        20        32     9        0.000000        1.304845         1
        23        22        20        32     9      180.000000        6.715047         2
        23        22        20        32     9        0.000000       -0.642491         3
        23        22        20        32     9      180.000000        0.471660         4
        23        22        27        26     9        0.000000       -0.352323         1
        23        22        27        26     9      180.000000       15.032335         2
        23        22        27        26     9        0.000000       -0.807027         3
        23        22        27        26     9      180.000000       -0.530700         4
        23        22        27        47     9        0.000000        0.175558         1
        23        22        27        47     9      180.000000       12.878707         2
        23        22        27        47     9        0.000000       -0.199767         3
        23        22        27        47     9      180.000000        0.063313         4
        23        24        25        26     9        0.000000       -0.298909         1
        23        24        25        26     9      180.000000       18.582473         2
        23        24        25        26     9        0.000000       -1.396088         3
        23        24        25        26     9      180.000000       -0.637263         4
        23        24        25        46     9        0.000000       -0.092886         1
        23        24        25        46     9      180.000000       15.524653         2
        23        24        25        46     9        0.000000       -0.526886         3
        23        24        25        46     9      180.000000       -0.181747         4
        23        28        31        48     9        0.000000        0.251674         1
        23        28        31        48     9      180.000000       -0.201329         2
        23        28        31        48     9        0.000000        0.311645         3
        23        28        31        48     9      180.000000       -0.020451         4
        23        28        31        49     9        0.000000        0.251674         1
        23        28        31        49     9      180.000000       -0.201329         2
        23        28        31        49     9        0.000000        0.311645         3
        23        28        31        49     9      180.000000       -0.020451         4
        23        28        31        50     9        0.000000        0.251674         1
        23        28        31        50     9      180.000000       -0.201329         2
        23        28        31        50     9        0.000000        0.311645         3
        23        28        31        50     9      180.000000       -0.020451         4
        24        23        22        27     9        0.000000       -0.131243         1
        24        23        22        27     9      180.000000       12.576342         2
        24        23        22        27     9        0.000000       -0.868933         3
        24        23        22        27     9      180.000000       -0.127915         4
        24        23        28        29     9        0.000000       -0.347787         1
        24        23        28        29     9      180.000000        0.181711         2
        24        23        28        29     9        0.000000       -0.679331         3
        24        23        28        29     9      180.000000        0.083461         4
        24        23        28        30     9        0.000000       -0.347787         1
        24        23        28        30     9      180.000000        0.181711         2
        24        23        28        30     9        0.000000       -0.679331         3
        24        23        28        30     9      180.000000        0.083461         4
        24        23        28        31     9        0.000000        0.539113         1
        24        23        28        31     9      180.000000       -1.015067         2
        24        23        28        31     9        0.000000       -0.862624         3
        24        23        28        31     9      180.000000        0.339897         4
        24        25        26        27     9        0.000000        0.146904         1
        24        25        26        27     9      180.000000       22.774792         2
        24        25        26        27     9        0.000000       -0.882359         3
        24        25        26        27     9      180.000000       -0.105555         4
        25        24        23        28     9        0.000000        0.262362         1
        25        24        23        28     9      180.000000       14.357957         2
        25        24        23        28     9        0.000000        0.007023         3
        25        24        23        28     9      180.000000       -0.452379         4
        25        26        27        47     9        0.000000        1.246555         1
        25        26        27        47     9      180.000000       20.090229         2
        25        26        27        47     9        0.000000        0.079193         3
        25        26        27        47     9      180.000000       -0.059135         4
        26        25        24        45     9        0.000000        0.037101         1
        26        25        24        45     9      180.000000       14.506004         2
        26        25        24        45     9        0.000000       -0.339457         3
        26        25        24        45     9      180.000000        0.005242         4
        27        22        20        32     9        0.000000        1.105940         1
        27        22        20        32     9      180.000000        4.867665         2
        27        22        20        32     9        0.000000       -0.659104         3
        27        22        20        32     9      180.000000        0.353153         4
        27        22        23        28     9        0.000000        0.405162         1
        27        22        23        28     9      180.000000        9.177137         2
        27        22        23        28     9        0.000000       -0.018705         3
        27        22        23        28     9      180.000000       -0.331635         4
        27        26        25        46     9        0.000000        1.009666         1
        27        26        25        46     9      180.000000       20.538272         2
        27        26        25        46     9        0.000000        0.377333         3
        27        26        25        46     9      180.000000       -0.370172         4
        28        23        24        45     9        0.000000        0.250511         1
        28        23        24        45     9      180.000000       12.354614         2
        28        23        24        45     9        0.000000       -0.346730         3
        28        23        24        45     9      180.000000       -0.039879         4
        29        28        31        48     9        0.000000       -0.017715         1
        29        28        31        48     9      180.000000       -0.052436         2
        29        28        31        48     9        0.000000        0.316074         3
        29        28        31        48     9      180.000000        0.004991         4
        29        28        31        49     9        0.000000       -0.017715         1
        29        28        31        49     9      180.000000       -0.052436         2
        29        28        31        49     9        0.000000        0.316074         3
        29        28        31        49     9      180.000000        0.004991         4
        29        28        31        50     9        0.000000       -0.017715         1
        29        28        31        50     9      180.000000       -0.052436         2
        29        28        31        50     9        0.000000        0.316074         3
        29        28        31        50     9      180.000000        0.004991         4
        30        28        31        48     9        0.000000       -0.017715         1
        30        28        31        48     9      180.000000       -0.052436         2
        30        28        31        48     9        0.000000        0.316074         3
        30        28        31        48     9      180.000000        0.004991         4
        30        28        31        49     9        0.000000       -0.017715         1
        30        28        31        49     9      180.000000       -0.052436         2
        30        28        31        49     9        0.000000        0.316074         3
        30        28        31        49     9      180.000000        0.004991         4
        30        28        31        50     9        0.000000       -0.017715         1
        30        28        31        50     9      180.000000       -0.052436         2
        30        28        31        50     9        0.000000        0.316074         3
        30        28        31        50     9      180.000000        0.004991         4
        35         8         9        36     9        0.000000       -0.431715         1
        35         8         9        36     9      180.000000        6.869070         2
        35         8         9        36     9        0.000000       -0.569257         3
        35         8         9        36     9      180.000000        0.186659         4
        37        12        13        38     9        0.000000       -0.056311         1
        37        12        13        38     9      180.000000       12.658450         2
        37        12        13        38     9        0.000000       -0.675856         3
        37        12        13        38     9      180.000000        0.271777         4
        40        17        18        41     9        0.000000        0.003503         1
        40        17        18        41     9      180.000000       10.860044         2
        40        17        18        41     9        0.000000       -0.481073         3
        40        17        18        41     9      180.000000        0.121267         4
        45        24        25        46     9        0.000000       -0.036611         1
        45        24        25        46     9      180.000000       12.034477         2
        45        24        25        46     9        0.000000       -0.740356         3
        45        24        25        46     9      180.000000        0.223731         4

[ dihedrals ] ; impropers
;       ai        aj        ak        al funct           phase               k        pn
         8         7         9        35     4      180.000000        4.409855         2
         8         9        35         7     4      180.000000        4.409855         2
         8        35         7         9     4      180.000000        4.409855         2
         9         8        10        36     4      180.000000        4.162411         2
         9        10        36         8     4      180.000000        4.162411         2
         9        36         8        10     4      180.000000        4.162411         2
        25        24        26        46     4      180.000000        4.275220         2
        25        26        46        24     4      180.000000        4.275220         2
        25        46        24        26     4      180.000000        4.275220         2
        27        22        26        47     4      180.000000        4.556429         2
        27        26        47        22     4      180.000000        4.556429         2
        27        47        22        26     4      180.000000        4.556429         2

[ pairs ]
;       ai        aj funct
         1         4     1
         1         7     1
         1         9     1
         1        22     1
         1        32     1
         1        34     1
         2         6     1
         2        10     1
         2        11     1
         2        23     1
         2        27     1
         2        51     1
         2        52     1
         2        53     1
         3         5     1
         3         7     1
         3        12     1
         3        14     1
         3        22     1
         3        32     1
         3        33     1
         4         8     1
         4        10     1
         4        13     1
         4        15     1
         4        20     1
         4        37     1
         4        39     1
         5         8     1
         5        11     1
         5        20     1
         5        36     1
         6         9     1
         6        12     1
         6        14     1
         6        33     1
         6        34     1
         6        35     1
         7        10     1
         7        11     1
         7        36     1
        10        33     1
        10        35     1
        11        16     1
        11        19     1
        11        34     1
        11        38     1
        12        15     1
        12        17     1
        12        39     1
        13        14     1
        13        18     1
        13        19     1
        13        40     1
        14        17     1
        14        18     1
        14        21     1
        14        37     1
        15        38     1
        15        40     1
        15        41     1
        15        42     1
        15        43     1
        15        44     1
        16        21     1
        16        37     1
        16        39     1
        16        41     1
        17        21     1
        17        38     1
        18        42     1
        18        43     1
        18        44     1
        19        39     1
        19        40     1
        20        24     1
        20        26     1
        20        28     1
        20        33     1
        20        34     1
        20        47     1
        21        41     1
        22        25     1
        22        29     1
        22        30     1
        22        31     1
        22        45     1
        22        51     1
        22        52     1
        22        53     1
        23        26     1
        23        32     1
        23        46     1
        23        47     1
        23        48     1
        23        49     1
        23        50     1
        24        27     1
        24        29     1
        24        30     1
        24        31     1
        25        28     1
        25        47     1
        26        45     1
        27        28     1
        27        32     1
        27        46     1
        28        45     1
        29        48     1
        29        49     1
        29        50     1
        30        48     1
        30        49     1
        30        50     1
        35        36     1
        37        38     1
        40        41     1
        45        46     1
