; ITP file created by ByteFF-ML, 2026-02-21 07:43:55.943527

[ atomtypes ]
;name           bonded.type        at.num        mass        charge   ptype           sigma         epsilon
 c0bf                                   6      0.0000       0.00000       A     3.31184e-01     4.10715e-01
 c1bf                                   6      0.0000       0.00000       A     3.31696e-01     4.13506e-01
 c2bf                                   6      0.0000       0.00000       A     3.31534e-01     4.11219e-01
 c3bf                                   6      0.0000       0.00000       A     3.31572e-01     4.14462e-01
 c4bf                                   6      0.0000       0.00000       A     3.31387e-01     4.12836e-01
 c5bf                                   6      0.0000       0.00000       A     3.31582e-01     4.11652e-01
 n6bf                                   7      0.0000       0.00000       A     3.38246e-01     3.93082e-01
 c7bf                                   6      0.0000       0.00000       A     3.31514e-01     4.13144e-01
 c8bf                                   6      0.0000       0.00000       A     3.31562e-01     4.13392e-01
 n9bf                                   7      0.0000       0.00000       A     3.38456e-01     3.92772e-01
 c10bf                                  6      0.0000       0.00000       A     3.31581e-01     4.12886e-01
 c11bf                                  6      0.0000       0.00000       A     3.31706e-01     4.11681e-01
 n12bf                                  7      0.0000       0.00000       A     3.38344e-01     3.92967e-01
 c13bf                                  6      0.0000       0.00000       A     3.31482e-01     4.12140e-01
 c14bf                                  6      0.0000       0.00000       A     3.31194e-01     4.12903e-01
 c15bf                                  6      0.0000       0.00000       A     3.31298e-01     4.15822e-01
 s16bf                                 16      0.0000       0.00000       A     4.05645e-01     2.55729e-01
 o17bf                                  8      0.0000       0.00000       A     3.04857e-01     6.11371e-01
 c18bf                                  6      0.0000       0.00000       A     3.39611e-01     4.49156e-01
 o19bf                                  8      0.0000       0.00000       A     3.04857e-01     6.11371e-01
 n20bf                                  7      0.0000       0.00000       A     3.27929e-01     6.45227e-01
 c21bf                                  6      0.0000       0.00000       A     3.31526e-01     4.10091e-01
 c22bf                                  6      0.0000       0.00000       A     3.31525e-01     4.14972e-01
 c23bf                                  6      0.0000       0.00000       A     3.31717e-01     4.12327e-01
 c24bf                                  6      0.0000       0.00000       A     3.31491e-01     4.12080e-01
 c25bf                                  6      0.0000       0.00000       A     3.31511e-01     4.13427e-01
 c26bf                                  6      0.0000       0.00000       A     3.31470e-01     4.13374e-01
 n27bf                                  7      0.0000       0.00000       A     3.19502e-01     8.90979e-01
 c28bf                                  6      0.0000       0.00000       A     3.39735e-01     4.50104e-01
 c29bf                                  6      0.0000       0.00000       A     3.39735e-01     4.50104e-01
 h30bf                                  1      0.0000       0.00000       A     2.62399e-01     6.76733e-02
 h31bf                                  1      0.0000       0.00000       A     2.62381e-01     6.75967e-02
 h32bf                                  1      0.0000       0.00000       A     2.53506e-01     6.72855e-02
 h33bf                                  1      0.0000       0.00000       A     2.53506e-01     6.72855e-02
 h34bf                                  1      0.0000       0.00000       A     2.53583e-01     6.80915e-02
 h35bf                                  1      0.0000       0.00000       A     2.53644e-01     6.69998e-02
 h36bf                                  1      0.0000       0.00000       A     2.62744e-01     6.79622e-02
 h37bf                                  1      0.0000       0.00000       A     2.42021e-01     8.71597e-02
 h38bf                                  1      0.0000       0.00000       A     2.42021e-01     8.71597e-02
 h39bf                                  1      0.0000       0.00000       A     2.42021e-01     8.71597e-02
 h40bf                                  1      0.0000       0.00000       A     1.10952e-01     4.04428e-02
 h41bf                                  1      0.0000       0.00000       A     2.62357e-01     6.79159e-02
 h42bf                                  1      0.0000       0.00000       A     2.62501e-01     6.72791e-02
 h43bf                                  1      0.0000       0.00000       A     2.62537e-01     6.75425e-02
 h44bf                                  1      0.0000       0.00000       A     2.62491e-01     6.75393e-02
 h45bf                                  1      0.0000       0.00000       A     2.41973e-01     8.72539e-02
 h46bf                                  1      0.0000       0.00000       A     2.41973e-01     8.72539e-02
 h47bf                                  1      0.0000       0.00000       A     2.41973e-01     8.72539e-02
 h48bf                                  1      0.0000       0.00000       A     2.41973e-01     8.72539e-02
 h49bf                                  1      0.0000       0.00000       A     2.41973e-01     8.72539e-02
 h50bf                                  1      0.0000       0.00000       A     2.41973e-01     8.72539e-02

[ moleculetype ]
;name             nrexcl
 38_flip               3

[ atoms ]
;       nr            type      resi   res      atom      cgnr      charge          mass ; qtot
         1            c0bf         1   UNL        c0         1     0.02431       12.0110 ; qtot    0.024
         2            c1bf         1   UNL        c1         2    -0.14199       12.0110 ; qtot   -0.118
         3            c2bf         1   UNL        c2         3     0.30796       12.0110 ; qtot    0.190
         4            c3bf         1   UNL        c3         4    -0.12961       12.0110 ; qtot    0.061
         5            c4bf         1   UNL        c4         5     0.25875       12.0110 ; qtot    0.319
         6            c5bf         1   UNL        c5         6     0.21921       12.0110 ; qtot    0.539
         7            n6bf         1   UNL        n6         7    -0.62219       14.0070 ; qtot   -0.084
         8            c7bf         1   UNL        c7         8     0.29317       12.0110 ; qtot    0.210
         9            c8bf         1   UNL        c8         9     0.29405       12.0110 ; qtot    0.504
        10            n9bf         1   UNL        n9        10    -0.62285       14.0070 ; qtot   -0.119
        11           c10bf         1   UNL       c10        11     0.35358       12.0110 ; qtot    0.234
        12           c11bf         1   UNL       c11        12     0.27846       12.0110 ; qtot    0.513
        13           n12bf         1   UNL       n12        13    -0.60355       14.0070 ; qtot   -0.091
        14           c13bf         1   UNL       c13        14     0.28639       12.0110 ; qtot    0.196
        15           c14bf         1   UNL       c14        15    -0.03902       12.0110 ; qtot    0.157
        16           c15bf         1   UNL       c15        16    -0.27733       12.0110 ; qtot   -0.121
        17           s16bf         1   UNL       s16        17     0.99436       32.0670 ; qtot    0.874
        18           o17bf         1   UNL       o17        18    -0.51400       15.9990 ; qtot    0.360
        19           c18bf         1   UNL       c18        19    -0.29607       12.0110 ; qtot    0.064
        20           o19bf         1   UNL       o19        20    -0.51400       15.9990 ; qtot   -0.450
        21           n20bf         1   UNL       n20        21    -0.96404       14.0070 ; qtot   -1.414
        22           c21bf         1   UNL       c21        22    -0.00530       12.0110 ; qtot   -1.420
        23           c22bf         1   UNL       c22        23    -0.16399       12.0110 ; qtot   -1.584
        24           c23bf         1   UNL       c23        24     0.30644       12.0110 ; qtot   -1.277
        25           c24bf         1   UNL       c24        25    -0.17679       12.0110 ; qtot   -1.454
        26           c25bf         1   UNL       c25        26    -0.08587       12.0110 ; qtot   -1.540
        27           c26bf         1   UNL       c26        27    -0.11583       12.0110 ; qtot   -1.656
        28           n27bf         1   UNL       n27        28    -0.80271       14.0070 ; qtot   -2.458
        29           c28bf         1   UNL       c28        29     0.18751       12.0110 ; qtot   -2.271
        30           c29bf         1   UNL       c29        30     0.18751       12.0110 ; qtot   -2.083
        31           h30bf         1   UNL       h30        31     0.14328        1.0080 ; qtot   -1.940
        32           h31bf         1   UNL       h31        32     0.12777        1.0080 ; qtot   -1.812
        33           h32bf         1   UNL       h32        33     0.03158        1.0080 ; qtot   -1.781
        34           h33bf         1   UNL       h33        34     0.03160        1.0080 ; qtot   -1.749
        35           h34bf         1   UNL       h34        35     0.03589        1.0080 ; qtot   -1.713
        36           h35bf         1   UNL       h35        36     0.03700        1.0080 ; qtot   -1.676
        37           h36bf         1   UNL       h36        37     0.15079        1.0080 ; qtot   -1.526
        38           h37bf         1   UNL       h37        38     0.10467        1.0080 ; qtot   -1.421
        39           h38bf         1   UNL       h38        39     0.10467        1.0080 ; qtot   -1.316
        40           h39bf         1   UNL       h39        40     0.10467        1.0080 ; qtot   -1.212
        41           h40bf         1   UNL       h40        41     0.51181        1.0080 ; qtot   -0.700
        42           h41bf         1   UNL       h41        42     0.11887        1.0080 ; qtot   -0.581
        43           h42bf         1   UNL       h42        43     0.11585        1.0080 ; qtot   -0.465
        44           h43bf         1   UNL       h43        44     0.11140        1.0080 ; qtot   -0.354
        45           h44bf         1   UNL       h44        45     0.12391        1.0080 ; qtot   -0.230
        46           h45bf         1   UNL       h45        46     0.03829        1.0080 ; qtot   -0.191
        47           h46bf         1   UNL       h46        47     0.03829        1.0080 ; qtot   -0.153
        48           h47bf         1   UNL       h47        48     0.03829        1.0080 ; qtot   -0.115
        49           h48bf         1   UNL       h48        49     0.03829        1.0080 ; qtot   -0.077
        50           h49bf         1   UNL       h49        50     0.03829        1.0080 ; qtot   -0.038
        51           h50bf         1   UNL       h50        51     0.03823        1.0080 ; qtot   -0.000

[ bonds ]
;       ai        aj funct               r               k
         1         4     1        0.138607   331043.550049
         1         6     1        0.143408   238122.844873
         1        22     1        0.148435   213990.276514
         2         3     1        0.138622   325678.790723
         2         5     1        0.141521   284458.984961
         2        31     1        0.108434   324306.120020
         3         4     1        0.142352   251288.271777
         3        21     1        0.140593   260287.140527
         4        32     1        0.108425   321462.077686
         5         6     1        0.143377   223875.308496
         5        10     1        0.136675   270922.835840
         6         7     1        0.136376   268524.084082
         7         8     1        0.131881   374103.202393
         8         9     1        0.142216   238192.510107
         8        33     1        0.108820   315940.162988
         9        10     1        0.131846   380187.239941
         9        34     1        0.108836   315483.763770
        11        12     1        0.141520   257222.712939
        11        16     1        0.141314   265581.366357
        11        21     1        0.138908   287909.048437
        12        13     1        0.133244   341315.137256
        12        35     1        0.108642   319937.129199
        13        14     1        0.133977   313656.558057
        14        15     1        0.139506   299656.782715
        14        36     1        0.108702   319547.177539
        15        16     1        0.139402   313134.043262
        15        37     1        0.108446   326160.114160
        16        17     1        0.180715   124483.627490
        17        18     1        0.147464   495020.215039
        17        19     1        0.180772   140787.539600
        17        20     1        0.147464   495020.215039
        19        38     1        0.109028   319230.083252
        19        39     1        0.109028   319230.083252
        19        40     1        0.109028   319230.108789
        21        41     1        0.101485   406811.310840
        22        23     1        0.140238   290878.861035
        22        27     1        0.140408   287678.141895
        23        24     1        0.141190   270320.798486
        23        42     1        0.108296   323369.342236
        24        25     1        0.141380   268931.911719
        24        28     1        0.139701   266924.209717
        25        26     1        0.139526   318762.932910
        25        43     1        0.108401   322151.835010
        26        27     1        0.139553   314386.689551
        26        44     1        0.108680   317192.272998
        27        45     1        0.108473   322467.754590
        28        29     1        0.145723   211214.533179
        28        30     1        0.145723   211214.533179
        29        46     1        0.109589   292077.956006
        29        47     1        0.109589   292077.956006
        29        48     1        0.109589   292077.956006
        30        49     1        0.109589   292077.956006
        30        50     1        0.109589   292077.956006
        30        51     1        0.109589   292077.956006

[ angles ]
;       ai        aj        ak funct           theta             cth
         1         4         3     1      122.372513      712.205784
         1         4        32     1      118.697472      414.648407
         1         6         5     1      118.938400      695.926579
         1         6         7     1      120.364151      431.160702
         1        22        23     1      120.104080      418.526121
         1        22        27     1      120.666977      479.490065
         2         3         4     1      119.328163      642.905028
         2         3        21     1      121.254745      492.361087
         2         5         6     1      120.561111      663.910960
         2         5        10     1      118.281189      431.307987
         3         2         5     1      120.257889      537.525444
         3         2        31     1      121.917053      423.581607
         3         4        32     1      118.503159      446.851340
         3        21        11     1      126.297546      421.362209
         3        21        41     1      115.426346      433.799388
         4         1         6     1      118.353592      532.536131
         4         1        22     1      119.137001      477.152876
         4         3        21     1      119.251770      541.101022
         5         2        31     1      117.843239      439.647833
         5         6         7     1      120.225365      782.040649
         5        10         9     1      116.661819      559.934704
         6         1        22     1      122.628036      449.148308
         6         5        10     1      121.313904      706.695897
         6         7         8     1      117.602097      602.197982
         7         8         9     1      122.256546      732.863901
         7         8        33     1      117.339157      362.478934
         8         9        10     1      122.299545      738.442163
         8         9        34     1      120.145851      429.987368
         9         8        33     1      120.142014      430.475797
        10         9        34     1      117.380966      342.428057
        11        12        13     1      124.232620      770.104221
        11        12        35     1      119.153419      415.430290
        11        16        15     1      120.275772      760.585008
        11        16        17     1      121.663406      744.979280
        11        21        41     1      114.551170      450.222622
        12        11        16     1      115.672928      673.644813
        12        11        21     1      122.505417      578.362793
        12        13        14     1      118.320412      693.264910
        13        12        35     1      116.504784      340.209521
        13        14        15     1      122.754715      730.070077
        13        14        36     1      116.530663      356.374383
        14        15        16     1      118.684891      679.603897
        14        15        37     1      121.212906      424.346444
        15        14        36     1      120.538696      415.343304
        15        16        17     1      117.699501      539.880923
        16        11        21     1      121.389572      543.101025
        16        15        37     1      120.270653      343.599700
        16        17        18     1      107.938034      640.902153
        16        17        19     1      103.486084      654.077513
        16        17        20     1      107.938034      640.902153
        17        19        38     1      107.672241      569.998368
        17        19        39     1      107.672241      569.998368
        17        19        40     1      107.672241      569.998368
        18        17        19     1      107.539917      732.341348
        18        17        20     1      120.015259      741.792249
        19        17        20     1      107.539917      732.341348
        22        23        24     1      121.863785      755.537087
        22        23        42     1      118.402969      408.071325
        22        27        26     1      119.629562      690.384899
        22        27        45     1      119.726273      411.637678
        23        22        27     1      119.310959      673.478311
        23        24        25     1      117.772568      648.976476
        23        24        28     1      120.906540      491.177378
        24        23        42     1      120.069016      416.900046
        24        25        26     1      120.330276      772.270087
        24        25        43     1      120.563095      425.930064
        24        28        29     1      118.256180      528.119360
        24        28        30     1      118.256180      528.119360
        25        24        28     1      121.247910      537.620889
        25        26        27     1      121.145569      688.273937
        25        26        44     1      119.102417      432.709272
        26        25        43     1      119.160202      432.430599
        26        27        45     1      120.523460      417.356745
        27        26        44     1      119.673302      433.715626
        28        29        46     1      110.827805      451.226422
        28        29        47     1      110.827805      451.226422
        28        29        48     1      110.827805      451.226422
        28        30        49     1      110.827805      451.226358
        28        30        50     1      110.827805      451.226422
        28        30        51     1      110.827805      451.226422
        29        28        30     1      116.443947      471.131066
        38        19        39     1      111.147987      344.776258
        38        19        40     1      111.147987      344.776258
        39        19        40     1      111.147987      344.776258
        46        29        47     1      108.195885      351.423504
        46        29        48     1      108.195885      351.423504
        47        29        48     1      108.195885      351.423504
        49        30        50     1      108.195885      351.423504
        49        30        51     1      108.195885      351.423504
        50        30        51     1      108.195885      351.423504

[ dihedrals ] ; propers for gromacs 4.5 or higher, use funct 9
;       ai        aj        ak        al funct           phase               k        pn
         1         4         3         2     9        0.000000        0.164163         1
         1         4         3         2     9      180.000000       14.216391         2
         1         4         3         2     9        0.000000       -0.831565         3
         1         4         3         2     9      180.000000       -0.244759         4
         1         4         3        21     9        0.000000        0.198630         1
         1         4         3        21     9      180.000000       15.545422         2
         1         4         3        21     9        0.000000        0.092031         3
         1         4         3        21     9      180.000000       -0.432380         4
         1         6         5         2     9        0.000000        0.139740         1
         1         6         5         2     9      180.000000       11.574582         2
         1         6         5         2     9        0.000000       -0.443632         3
         1         6         5         2     9      180.000000       -0.222315         4
         1         6         5        10     9        0.000000       -0.349477         1
         1         6         5        10     9      180.000000       10.018864         2
         1         6         5        10     9        0.000000        0.058638         3
         1         6         5        10     9      180.000000       -0.266798         4
         1         6         7         8     9        0.000000        0.556615         1
         1         6         7         8     9      180.000000       16.555593         2
         1         6         7         8     9        0.000000        0.388122         3
         1         6         7         8     9      180.000000       -0.356771         4
         1        22        23        24     9        0.000000        0.252350         1
         1        22        23        24     9      180.000000       15.168315         2
         1        22        23        24     9        0.000000        0.027924         3
         1        22        23        24     9      180.000000       -0.238635         4
         1        22        23        42     9        0.000000       -0.070780         1
         1        22        23        42     9      180.000000       12.986260         2
         1        22        23        42     9        0.000000       -0.177217         3
         1        22        23        42     9      180.000000        0.182631         4
         1        22        27        26     9        0.000000        0.271142         1
         1        22        27        26     9      180.000000       15.633369         2
         1        22        27        26     9        0.000000       -0.063088         3
         1        22        27        26     9      180.000000       -0.223618         4
         1        22        27        45     9        0.000000       -0.058540         1
         1        22        27        45     9      180.000000       12.772423         2
         1        22        27        45     9        0.000000       -0.203106         3
         1        22        27        45     9      180.000000        0.216353         4
         2         3         4        32     9        0.000000       -0.062431         1
         2         3         4        32     9      180.000000       11.927328         2
         2         3         4        32     9        0.000000       -0.431704         3
         2         3         4        32     9      180.000000        0.110490         4
         2         3        21        11     9        0.000000       -0.167871         1
         2         3        21        11     9      180.000000        3.526327         2
         2         3        21        11     9        0.000000       -0.356689         3
         2         3        21        11     9      180.000000        0.139572         4
         2         3        21        41     9        0.000000       -0.457733         1
         2         3        21        41     9      180.000000        3.512781         2
         2         3        21        41     9        0.000000       -0.099182         3
         2         3        21        41     9      180.000000        0.073474         4
         2         5         6         7     9        0.000000        0.337417         1
         2         5         6         7     9      180.000000       11.181904         2
         2         5         6         7     9        0.000000       -0.066177         3
         2         5         6         7     9      180.000000       -0.252704         4
         2         5        10         9     9        0.000000       -0.023333         1
         2         5        10         9     9      180.000000       18.424194         2
         2         5        10         9     9        0.000000        0.154346         3
         2         5        10         9     9      180.000000       -0.275637         4
         3         2         5         6     9        0.000000       -0.530340         1
         3         2         5         6     9      180.000000       13.660331         2
         3         2         5         6     9        0.000000       -0.959970         3
         3         2         5         6     9      180.000000       -0.183422         4
         3         2         5        10     9        0.000000       -0.306895         1
         3         2         5        10     9      180.000000       14.010283         2
         3         2         5        10     9        0.000000       -0.425194         3
         3         2         5        10     9      180.000000       -0.392179         4
         3         4         1         6     9        0.000000       -0.205749         1
         3         4         1         6     9      180.000000       19.523794         2
         3         4         1         6     9        0.000000       -1.524123         3
         3         4         1         6     9      180.000000       -0.316393         4
         3         4         1        22     9        0.000000        0.375051         1
         3         4         1        22     9      180.000000       19.419563         2
         3         4         1        22     9        0.000000        0.043110         3
         3         4         1        22     9      180.000000       -0.800298         4
         3        21        11        12     9        0.000000        1.786047         1
         3        21        11        12     9      180.000000        3.116501         2
         3        21        11        12     9        0.000000       -0.286578         3
         3        21        11        12     9      180.000000        0.145436         4
         3        21        11        16     9        0.000000       -1.816149         1
         3        21        11        16     9      180.000000        4.619861         2
         3        21        11        16     9        0.000000       -0.590150         3
         3        21        11        16     9      180.000000        0.059913         4
         4         1         6         5     9        0.000000       -0.383723         1
         4         1         6         5     9      180.000000       10.633272         2
         4         1         6         5     9        0.000000       -0.850333         3
         4         1         6         5     9      180.000000        0.036597         4
         4         1         6         7     9        0.000000        0.097543         1
         4         1         6         7     9      180.000000        9.584167         2
         4         1         6         7     9        0.000000       -0.273864         3
         4         1         6         7     9      180.000000       -0.087040         4
         4         1        22        23     9        0.000000       -0.019938         1
         4         1        22        23     9      180.000000        4.425770         2
         4         1        22        23     9        0.000000        0.045723         3
         4         1        22        23     9      180.000000        0.629448         4
         4         1        22        27     9        0.000000       -0.398379         1
         4         1        22        27     9      180.000000        4.293258         2
         4         1        22        27     9        0.000000        0.068205         3
         4         1        22        27     9      180.000000        0.595975         4
         4         3         2         5     9        0.000000       -0.167717         1
         4         3         2         5     9      180.000000       17.290349         2
         4         3         2         5     9        0.000000       -1.146064         3
         4         3         2         5     9      180.000000       -0.418463         4
         4         3         2        31     9        0.000000        0.061252         1
         4         3         2        31     9      180.000000       13.337191         2
         4         3         2        31     9        0.000000       -0.359259         3
         4         3         2        31     9      180.000000        0.130979         4
         4         3        21        11     9        0.000000       -0.216344         1
         4         3        21        11     9      180.000000        3.383541         2
         4         3        21        11     9        0.000000        0.029880         3
         4         3        21        11     9      180.000000        0.116824         4
         4         3        21        41     9        0.000000       -0.412559         1
         4         3        21        41     9      180.000000        3.316538         2
         4         3        21        41     9        0.000000        0.047272         3
         4         3        21        41     9      180.000000        0.093660         4
         5         2         3        21     9        0.000000        0.246511         1
         5         2         3        21     9      180.000000       19.522853         2
         5         2         3        21     9        0.000000        0.055608         3
         5         2         3        21     9      180.000000       -0.772828         4
         5         6         1        22     9        0.000000        0.030689         1
         5         6         1        22     9      180.000000       12.669406         2
         5         6         1        22     9        0.000000       -0.018403         3
         5         6         1        22     9      180.000000       -0.459701         4
         5         6         7         8     9        0.000000        0.172539         1
         5         6         7         8     9      180.000000       16.817876         2
         5         6         7         8     9        0.000000       -0.048042         3
         5         6         7         8     9      180.000000       -0.239301         4
         5        10         9         8     9        0.000000       -0.161990         1
         5        10         9         8     9      180.000000       25.805864         2
         5        10         9         8     9        0.000000       -0.989158         3
         5        10         9         8     9      180.000000       -0.201960         4
         5        10         9        34     9        0.000000        0.808513         1
         5        10         9        34     9      180.000000       23.535886         2
         5        10         9        34     9        0.000000        0.064004         3
         5        10         9        34     9      180.000000       -0.475717         4
         6         1         4        32     9        0.000000        0.176167         1
         6         1         4        32     9      180.000000       15.792514         2
         6         1         4        32     9        0.000000       -0.315339         3
         6         1         4        32     9      180.000000        0.178913         4
         6         1        22        23     9        0.000000       -1.314638         1
         6         1        22        23     9      180.000000        4.104399         2
         6         1        22        23     9        0.000000       -0.285648         3
         6         1        22        23     9      180.000000        0.760823         4
         6         1        22        27     9        0.000000        0.135581         1
         6         1        22        27     9      180.000000        3.958827         2
         6         1        22        27     9        0.000000       -0.154148         3
         6         1        22        27     9      180.000000        0.779673         4
         6         5         2        31     9        0.000000       -0.168579         1
         6         5         2        31     9      180.000000       10.564597         2
         6         5         2        31     9        0.000000       -0.261929         3
         6         5         2        31     9      180.000000       -0.006921         4
         6         5        10         9     9        0.000000       -0.113243         1
         6         5        10         9     9      180.000000       16.457234         2
         6         5        10         9     9        0.000000        0.035209         3
         6         5        10         9     9      180.000000       -0.227308         4
         6         7         8         9     9        0.000000        0.104497         1
         6         7         8         9     9      180.000000       25.053764         2
         6         7         8         9     9        0.000000       -0.955082         3
         6         7         8         9     9      180.000000       -0.160012         4
         6         7         8        33     9        0.000000        0.726539         1
         6         7         8        33     9      180.000000       22.911942         2
         6         7         8        33     9        0.000000        0.102107         3
         6         7         8        33     9      180.000000       -0.545266         4
         7         6         1        22     9        0.000000       -0.499121         1
         7         6         1        22     9      180.000000       12.567873         2
         7         6         1        22     9        0.000000       -0.138865         3
         7         6         1        22     9      180.000000       -0.490983         4
         7         6         5        10     9        0.000000        0.152873         1
         7         6         5        10     9      180.000000       11.072213         2
         7         6         5        10     9        0.000000        0.155830         3
         7         6         5        10     9      180.000000       -0.400050         4
         7         8         9        10     9        0.000000       -0.713203         1
         7         8         9        10     9      180.000000       11.742392         2
         7         8         9        10     9        0.000000       -0.552181         3
         7         8         9        10     9      180.000000       -0.521535         4
         7         8         9        34     9        0.000000       -0.026031         1
         7         8         9        34     9      180.000000        9.508286         2
         7         8         9        34     9        0.000000       -0.255749         3
         7         8         9        34     9      180.000000       -0.134502         4
        10         5         2        31     9        0.000000        0.016940         1
        10         5         2        31     9      180.000000       11.980065         2
        10         5         2        31     9        0.000000       -0.349905         3
        10         5         2        31     9      180.000000        0.012864         4
        10         9         8        33     9        0.000000       -0.199022         1
        10         9         8        33     9      180.000000        9.267615         2
        10         9         8        33     9        0.000000       -0.318099         3
        10         9         8        33     9      180.000000       -0.090079         4
        11        12        13        14     9        0.000000        0.319721         1
        11        12        13        14     9      180.000000       22.949103         2
        11        12        13        14     9        0.000000       -0.741215         3
        11        12        13        14     9      180.000000        0.175923         4
        11        16        15        14     9        0.000000       -0.049560         1
        11        16        15        14     9      180.000000       18.886873         2
        11        16        15        14     9        0.000000       -2.021566         3
        11        16        15        14     9      180.000000       -0.405198         4
        11        16        15        37     9        0.000000        0.229105         1
        11        16        15        37     9      180.000000       14.976780         2
        11        16        15        37     9        0.000000       -0.507225         3
        11        16        15        37     9      180.000000        0.085320         4
        11        16        17        18     9        0.000000       -1.334284         1
        11        16        17        18     9      180.000000        0.814377         2
        11        16        17        18     9        0.000000        0.785313         3
        11        16        17        18     9      180.000000       -0.187784         4
        11        16        17        19     9        0.000000        3.729088         1
        11        16        17        19     9      180.000000       -2.195929         2
        11        16        17        19     9        0.000000        0.799428         3
        11        16        17        19     9      180.000000        0.054293         4
        11        16        17        20     9        0.000000       -1.334284         1
        11        16        17        20     9      180.000000        0.814377         2
        11        16        17        20     9        0.000000        0.785313         3
        11        16        17        20     9      180.000000       -0.187784         4
        12        11        16        15     9        0.000000       -0.037262         1
        12        11        16        15     9      180.000000       14.380148         2
        12        11        16        15     9        0.000000       -0.900346         3
        12        11        16        15     9      180.000000       -0.221952         4
        12        11        16        17     9        0.000000        0.366402         1
        12        11        16        17     9      180.000000       11.025738         2
        12        11        16        17     9        0.000000        0.150288         3
        12        11        16        17     9      180.000000       -0.363523         4
        12        11        21        41     9        0.000000       -1.272590         1
        12        11        21        41     9      180.000000        2.989698         2
        12        11        21        41     9        0.000000       -0.423807         3
        12        11        21        41     9      180.000000        0.040258         4
        12        13        14        15     9        0.000000        0.177562         1
        12        13        14        15     9      180.000000       22.523862         2
        12        13        14        15     9        0.000000       -0.901752         3
        12        13        14        15     9      180.000000       -0.193724         4
        12        13        14        36     9        0.000000        0.988693         1
        12        13        14        36     9      180.000000       20.417146         2
        12        13        14        36     9        0.000000        0.253449         3
        12        13        14        36     9      180.000000       -0.430136         4
        13        12        11        16     9        0.000000       -0.510166         1
        13        12        11        16     9      180.000000       14.375531         2
        13        12        11        16     9        0.000000       -0.595358         3
        13        12        11        16     9      180.000000       -0.489937         4
        13        12        11        21     9        0.000000        0.186749         1
        13        12        11        21     9      180.000000       16.683917         2
        13        12        11        21     9        0.000000        0.179116         3
        13        12        11        21     9      180.000000       -0.684725         4
        13        14        15        16     9        0.000000       -0.220827         1
        13        14        15        16     9      180.000000       18.549630         2
        13        14        15        16     9        0.000000       -1.222990         3
        13        14        15        16     9      180.000000       -0.581963         4
        13        14        15        37     9        0.000000        0.066372         1
        13        14        15        37     9      180.000000       14.573594         2
        13        14        15        37     9        0.000000       -0.318036         3
        13        14        15        37     9      180.000000       -0.017204         4
        14        13        12        35     9        0.000000        1.115356         1
        14        13        12        35     9      180.000000       20.962220         2
        14        13        12        35     9        0.000000        0.247397         3
        14        13        12        35     9      180.000000       -0.016300         4
        14        15        16        17     9        0.000000        0.192523         1
        14        15        16        17     9      180.000000       13.995354         2
        14        15        16        17     9        0.000000        0.189775         3
        14        15        16        17     9      180.000000       -0.443900         4
        15        16        11        21     9        0.000000        0.142199         1
        15        16        11        21     9      180.000000       15.897987         2
        15        16        11        21     9        0.000000        0.030266         3
        15        16        11        21     9      180.000000       -0.460852         4
        15        16        17        18     9        0.000000       -0.090525         1
        15        16        17        18     9      180.000000        0.655865         2
        15        16        17        18     9        0.000000       -0.321290         3
        15        16        17        18     9      180.000000       -0.045697         4
        15        16        17        19     9        0.000000        0.119867         1
        15        16        17        19     9      180.000000       -0.559450         2
        15        16        17        19     9        0.000000       -0.551232         3
        15        16        17        19     9      180.000000        0.255504         4
        15        16        17        20     9        0.000000       -0.090525         1
        15        16        17        20     9      180.000000        0.655865         2
        15        16        17        20     9        0.000000       -0.321290         3
        15        16        17        20     9      180.000000       -0.045697         4
        16        11        12        35     9        0.000000        0.058995         1
        16        11        12        35     9      180.000000       12.296400         2
        16        11        12        35     9        0.000000       -0.329283         3
        16        11        12        35     9      180.000000        0.069067         4
        16        11        21        41     9        0.000000        2.440459         1
        16        11        21        41     9      180.000000        3.205590         2
        16        11        21        41     9        0.000000       -0.727467         3
        16        11        21        41     9      180.000000        0.027702         4
        16        15        14        36     9        0.000000        0.008007         1
        16        15        14        36     9      180.000000       14.871302         2
        16        15        14        36     9        0.000000       -0.365301         3
        16        15        14        36     9      180.000000       -0.122425         4
        16        17        19        38     9        0.000000        0.134670         1
        16        17        19        38     9      180.000000       -0.180390         2
        16        17        19        38     9        0.000000        0.326690         3
        16        17        19        38     9      180.000000       -0.016353         4
        16        17        19        39     9        0.000000        0.134670         1
        16        17        19        39     9      180.000000       -0.180390         2
        16        17        19        39     9        0.000000        0.326690         3
        16        17        19        39     9      180.000000       -0.016353         4
        16        17        19        40     9        0.000000        0.134670         1
        16        17        19        40     9      180.000000       -0.180389         2
        16        17        19        40     9        0.000000        0.326690         3
        16        17        19        40     9      180.000000       -0.016353         4
        17        16        11        21     9        0.000000       -0.927876         1
        17        16        11        21     9      180.000000       13.516794         2
        17        16        11        21     9        0.000000       -0.073922         3
        17        16        11        21     9      180.000000       -0.622706         4
        17        16        15        37     9        0.000000       -0.032266         1
        17        16        15        37     9      180.000000       12.082714         2
        17        16        15        37     9        0.000000       -0.269976         3
        17        16        15        37     9      180.000000        0.014566         4
        18        17        19        38     9        0.000000       -0.020339         1
        18        17        19        38     9      180.000000       -0.042566         2
        18        17        19        38     9        0.000000        0.357266         3
        18        17        19        38     9      180.000000        0.004050         4
        18        17        19        39     9        0.000000       -0.020339         1
        18        17        19        39     9      180.000000       -0.042566         2
        18        17        19        39     9        0.000000        0.357266         3
        18        17        19        39     9      180.000000        0.004050         4
        18        17        19        40     9        0.000000       -0.020339         1
        18        17        19        40     9      180.000000       -0.042566         2
        18        17        19        40     9        0.000000        0.357266         3
        18        17        19        40     9      180.000000        0.004050         4
        20        17        19        38     9        0.000000       -0.020339         1
        20        17        19        38     9      180.000000       -0.042566         2
        20        17        19        38     9        0.000000        0.357266         3
        20        17        19        38     9      180.000000        0.004050         4
        20        17        19        39     9        0.000000       -0.020339         1
        20        17        19        39     9      180.000000       -0.042566         2
        20        17        19        39     9        0.000000        0.357266         3
        20        17        19        39     9      180.000000        0.004050         4
        20        17        19        40     9        0.000000       -0.020339         1
        20        17        19        40     9      180.000000       -0.042566         2
        20        17        19        40     9        0.000000        0.357266         3
        20        17        19        40     9      180.000000        0.004050         4
        21         3         2        31     9        0.000000       -0.006423         1
        21         3         2        31     9      180.000000       15.238161         2
        21         3         2        31     9        0.000000       -0.072526         3
        21         3         2        31     9      180.000000        0.161232         4
        21         3         4        32     9        0.000000       -0.052764         1
        21         3         4        32     9      180.000000       14.029723         2
        21         3         4        32     9        0.000000       -0.046525         3
        21         3         4        32     9      180.000000        0.147453         4
        21        11        12        35     9        0.000000       -0.299543         1
        21        11        12        35     9      180.000000       14.371221         2
        21        11        12        35     9        0.000000       -0.253273         3
        21        11        12        35     9      180.000000        0.145399         4
        22         1         4        32     9        0.000000        0.052385         1
        22         1         4        32     9      180.000000       15.210193         2
        22         1         4        32     9        0.000000       -0.135482         3
        22         1         4        32     9      180.000000        0.060289         4
        22        23        24        25     9        0.000000        0.010964         1
        22        23        24        25     9      180.000000       14.910812         2
        22        23        24        25     9        0.000000       -0.778247         3
        22        23        24        25     9      180.000000       -0.141050         4
        22        23        24        28     9        0.000000        0.253777         1
        22        23        24        28     9      180.000000       15.857912         2
        22        23        24        28     9        0.000000        0.171308         3
        22        23        24        28     9      180.000000       -0.418310         4
        22        27        26        25     9        0.000000       -0.059812         1
        22        27        26        25     9      180.000000       18.631041         2
        22        27        26        25     9        0.000000       -1.559943         3
        22        27        26        25     9      180.000000       -0.429692         4
        22        27        26        44     9        0.000000        0.033972         1
        22        27        26        44     9      180.000000       14.543932         2
        22        27        26        44     9        0.000000       -0.548909         3
        22        27        26        44     9      180.000000        0.063338         4
        23        22        27        26     9        0.000000       -0.121538         1
        23        22        27        26     9      180.000000       18.279664         2
        23        22        27        26     9        0.000000       -1.316539         3
        23        22        27        26     9      180.000000       -0.248808         4
        23        22        27        45     9        0.000000       -0.006585         1
        23        22        27        45     9      180.000000       13.882725         2
        23        22        27        45     9        0.000000       -0.467191         3
        23        22        27        45     9      180.000000        0.125326         4
        23        24        25        26     9        0.000000        0.036611         1
        23        24        25        26     9      180.000000       14.875090         2
        23        24        25        26     9        0.000000       -0.685304         3
        23        24        25        26     9      180.000000       -0.105319         4
        23        24        25        43     9        0.000000        0.069659         1
        23        24        25        43     9      180.000000       12.101208         2
        23        24        25        43     9        0.000000       -0.400181         3
        23        24        25        43     9      180.000000        0.150680         4
        23        24        28        29     9        0.000000       -0.176263         1
        23        24        28        29     9      180.000000        5.855764         2
        23        24        28        29     9        0.000000       -0.358946         3
        23        24        28        29     9      180.000000        0.418140         4
        23        24        28        30     9        0.000000       -0.176263         1
        23        24        28        30     9      180.000000        5.855764         2
        23        24        28        30     9        0.000000       -0.358946         3
        23        24        28        30     9      180.000000        0.418140         4
        24        23        22        27     9        0.000000       -0.160887         1
        24        23        22        27     9      180.000000       18.324245         2
        24        23        22        27     9        0.000000       -1.616887         3
        24        23        22        27     9      180.000000       -0.422476         4
        24        25        26        27     9        0.000000        0.005532         1
        24        25        26        27     9      180.000000       18.211580         2
        24        25        26        27     9        0.000000       -1.612051         3
        24        25        26        27     9      180.000000       -0.405779         4
        24        25        26        44     9        0.000000        0.066052         1
        24        25        26        44     9      180.000000       14.095214         2
        24        25        26        44     9        0.000000       -0.497521         3
        24        25        26        44     9      180.000000        0.108939         4
        24        28        29        46     9        0.000000       -0.016592         1
        24        28        29        46     9      180.000000        0.005583         2
        24        28        29        46     9        0.000000        0.733532         3
        24        28        29        46     9      180.000000       -0.002614         4
        24        28        29        47     9        0.000000       -0.016592         1
        24        28        29        47     9      180.000000        0.005583         2
        24        28        29        47     9        0.000000        0.733532         3
        24        28        29        47     9      180.000000       -0.002614         4
        24        28        29        48     9        0.000000       -0.016592         1
        24        28        29        48     9      180.000000        0.005583         2
        24        28        29        48     9        0.000000        0.733532         3
        24        28        29        48     9      180.000000       -0.002614         4
        24        28        30        49     9        0.000000       -0.016592         1
        24        28        30        49     9      180.000000        0.005583         2
        24        28        30        49     9        0.000000        0.733532         3
        24        28        30        49     9      180.000000       -0.002614         4
        24        28        30        50     9        0.000000       -0.016592         1
        24        28        30        50     9      180.000000        0.005583         2
        24        28        30        50     9        0.000000        0.733532         3
        24        28        30        50     9      180.000000       -0.002614         4
        24        28        30        51     9        0.000000       -0.016592         1
        24        28        30        51     9      180.000000        0.005583         2
        24        28        30        51     9        0.000000        0.733532         3
        24        28        30        51     9      180.000000       -0.002614         4
        25        24        23        42     9        0.000000        0.205854         1
        25        24        23        42     9      180.000000       11.925768         2
        25        24        23        42     9        0.000000       -0.390843         3
        25        24        23        42     9      180.000000        0.184209         4
        25        24        28        29     9        0.000000       -0.054340         1
        25        24        28        29     9      180.000000        5.792259         2
        25        24        28        29     9        0.000000       -0.202513         3
        25        24        28        29     9      180.000000        0.397773         4
        25        24        28        30     9        0.000000       -0.054340         1
        25        24        28        30     9      180.000000        5.792259         2
        25        24        28        30     9        0.000000       -0.202513         3
        25        24        28        30     9      180.000000        0.397773         4
        25        26        27        45     9        0.000000        0.046644         1
        25        26        27        45     9      180.000000       14.150254         2
        25        26        27        45     9        0.000000       -0.772293         3
        25        26        27        45     9      180.000000        0.126937         4
        26        25        24        28     9        0.000000        0.368135         1
        26        25        24        28     9      180.000000       15.454003         2
        26        25        24        28     9        0.000000        0.188334         3
        26        25        24        28     9      180.000000       -0.267275         4
        27        22        23        42     9        0.000000        0.093998         1
        27        22        23        42     9      180.000000       13.936156         2
        27        22        23        42     9        0.000000       -0.444431         3
        27        22        23        42     9      180.000000        0.189823         4
        27        26        25        43     9        0.000000        0.103427         1
        27        26        25        43     9      180.000000       14.250779         2
        27        26        25        43     9        0.000000       -0.699568         3
        27        26        25        43     9      180.000000        0.210875         4
        28        24        23        42     9        0.000000        0.020847         1
        28        24        23        42     9      180.000000       12.855830         2
        28        24        23        42     9        0.000000       -0.061930         3
        28        24        23        42     9      180.000000        0.104116         4
        28        24        25        43     9        0.000000       -0.057950         1
        28        24        25        43     9      180.000000       12.899941         2
        28        24        25        43     9        0.000000       -0.029078         3
        28        24        25        43     9      180.000000        0.112420         4
        29        28        30        49     9        0.000000       -0.010097         1
        29        28        30        49     9      180.000000       -0.027384         2
        29        28        30        49     9        0.000000        0.948198         3
        29        28        30        49     9      180.000000        0.006964         4
        29        28        30        50     9        0.000000       -0.010097         1
        29        28        30        50     9      180.000000       -0.027384         2
        29        28        30        50     9        0.000000        0.948198         3
        29        28        30        50     9      180.000000        0.006964         4
        29        28        30        51     9        0.000000       -0.010097         1
        29        28        30        51     9      180.000000       -0.027384         2
        29        28        30        51     9        0.000000        0.948198         3
        29        28        30        51     9      180.000000        0.006964         4
        30        28        29        46     9        0.000000       -0.010097         1
        30        28        29        46     9      180.000000       -0.027384         2
        30        28        29        46     9        0.000000        0.948198         3
        30        28        29        46     9      180.000000        0.006964         4
        30        28        29        47     9        0.000000       -0.010097         1
        30        28        29        47     9      180.000000       -0.027384         2
        30        28        29        47     9        0.000000        0.948198         3
        30        28        29        47     9      180.000000        0.006964         4
        30        28        29        48     9        0.000000       -0.010097         1
        30        28        29        48     9      180.000000       -0.027384         2
        30        28        29        48     9        0.000000        0.948198         3
        30        28        29        48     9      180.000000        0.006964         4
        33         8         9        34     9        0.000000       -0.431715         1
        33         8         9        34     9      180.000000        6.869070         2
        33         8         9        34     9        0.000000       -0.569257         3
        33         8         9        34     9      180.000000        0.186659         4
        36        14        15        37     9        0.000000       -0.049750         1
        36        14        15        37     9      180.000000       11.944935         2
        36        14        15        37     9        0.000000       -0.710211         3
        36        14        15        37     9      180.000000        0.205813         4
        43        25        26        44     9        0.000000       -0.149985         1
        43        25        26        44     9      180.000000       11.586742         2
        43        25        26        44     9        0.000000       -0.617860         3
        43        25        26        44     9      180.000000        0.283644         4
        44        26        27        45     9        0.000000       -0.187514         1
        44        26        27        45     9      180.000000       11.738405         2
        44        26        27        45     9        0.000000       -0.709836         3
        44        26        27        45     9      180.000000        0.288254         4

[ dihedrals ] ; impropers
;       ai        aj        ak        al funct           phase               k        pn
         1         4         6        22     4      180.000000        0.363781         2
         1         6        22         4     4      180.000000        0.363781         2
         1        22         4         6     4      180.000000        0.363781         2
         8         7         9        33     4      180.000000        4.409855         2
         8         9        33         7     4      180.000000        4.409855         2
         8        33         7         9     4      180.000000        4.409855         2
         9         8        10        34     4      180.000000        4.162411         2
         9        10        34         8     4      180.000000        4.162411         2
         9        34         8        10     4      180.000000        4.162411         2
        12        11        13        35     4      180.000000        3.547248         2
        12        13        35        11     4      180.000000        3.547248         2
        12        35        11        13     4      180.000000        3.547248         2
        14        13        15        36     4      180.000000        3.347115         2
        14        15        36        13     4      180.000000        3.347115         2
        14        36        13        15     4      180.000000        3.347115         2
        26        25        27        44     4      180.000000        0.272904         2
        26        27        44        25     4      180.000000        0.272904         2
        26        44        25        27     4      180.000000        0.272904         2

[ pairs ]
;       ai        aj funct
         1         2     1
         1         8     1
         1        10     1
         1        21     1
         1        24     1
         1        26     1
         1        42     1
         1        45     1
         2         7     1
         2         9     1
         2        11     1
         2        32     1
         2        41     1
         3         6     1
         3        10     1
         3        12     1
         3        16     1
         3        22     1
         4         5     1
         4         7     1
         4        11     1
         4        23     1
         4        27     1
         4        31     1
         4        41     1
         5         8     1
         5        21     1
         5        22     1
         5        34     1
         6         9     1
         6        23     1
         6        27     1
         6        31     1
         6        32     1
         6        33     1
         7        10     1
         7        22     1
         7        34     1
        10        31     1
        10        33     1
        11        14     1
        11        18     1
        11        19     1
        11        20     1
        11        37     1
        12        15     1
        12        17     1
        12        36     1
        12        41     1
        13        16     1
        13        21     1
        13        37     1
        14        17     1
        14        35     1
        15        18     1
        15        19     1
        15        20     1
        15        21     1
        16        35     1
        16        36     1
        16        38     1
        16        39     1
        16        40     1
        16        41     1
        17        21     1
        17        37     1
        18        38     1
        18        39     1
        18        40     1
        20        38     1
        20        39     1
        20        40     1
        21        31     1
        21        32     1
        21        35     1
        22        25     1
        22        28     1
        22        32     1
        22        44     1
        23        26     1
        23        29     1
        23        30     1
        23        43     1
        23        45     1
        24        27     1
        24        44     1
        24        46     1
        24        47     1
        24        48     1
        24        49     1
        24        50     1
        24        51     1
        25        29     1
        25        30     1
        25        42     1
        25        45     1
        26        28     1
        27        42     1
        27        43     1
        28        42     1
        28        43     1
        29        49     1
        29        50     1
        29        51     1
        30        46     1
        30        47     1
        30        48     1
        33        34     1
        36        37     1
        43        44     1
        44        45     1
