; ITP file created by ByteFF-ML, 2026-02-21 07:45:17.647768

[ atomtypes ]
;name           bonded.type        at.num        mass        charge   ptype           sigma         epsilon
 c0bf                                   6      0.0000       0.00000       A     3.31174e-01     4.10753e-01
 c1bf                                   6      0.0000       0.00000       A     3.31696e-01     4.13508e-01
 c2bf                                   6      0.0000       0.00000       A     3.31534e-01     4.11219e-01
 c3bf                                   6      0.0000       0.00000       A     3.31572e-01     4.14462e-01
 c4bf                                   6      0.0000       0.00000       A     3.31387e-01     4.12836e-01
 c5bf                                   6      0.0000       0.00000       A     3.31582e-01     4.11652e-01
 n6bf                                   7      0.0000       0.00000       A     3.38246e-01     3.93082e-01
 c7bf                                   6      0.0000       0.00000       A     3.31514e-01     4.13144e-01
 c8bf                                   6      0.0000       0.00000       A     3.31562e-01     4.13392e-01
 n9bf                                   7      0.0000       0.00000       A     3.38456e-01     3.92772e-01
 c10bf                                  6      0.0000       0.00000       A     3.31497e-01     4.10416e-01
 c11bf                                  6      0.0000       0.00000       A     3.31474e-01     4.13301e-01
 c12bf                                  6      0.0000       0.00000       A     3.31499e-01     4.13230e-01
 c13bf                                  6      0.0000       0.00000       A     3.31486e-01     4.14368e-01
 n14bf                                  7      0.0000       0.00000       A     3.27929e-01     6.45227e-01
 c15bf                                  6      0.0000       0.00000       A     3.31581e-01     4.12886e-01
 c16bf                                  6      0.0000       0.00000       A     3.31706e-01     4.11679e-01
 n17bf                                  7      0.0000       0.00000       A     3.38344e-01     3.92967e-01
 c18bf                                  6      0.0000       0.00000       A     3.31482e-01     4.12140e-01
 c19bf                                  6      0.0000       0.00000       A     3.31194e-01     4.12903e-01
 c20bf                                  6      0.0000       0.00000       A     3.31298e-01     4.15822e-01
 s21bf                                 16      0.0000       0.00000       A     4.05645e-01     2.55727e-01
 o22bf                                  8      0.0000       0.00000       A     3.04857e-01     6.11370e-01
 o23bf                                  8      0.0000       0.00000       A     3.04857e-01     6.11370e-01
 c24bf                                  6      0.0000       0.00000       A     3.39611e-01     4.49156e-01
 c25bf                                  6      0.0000       0.00000       A     3.31466e-01     4.11222e-01
 c26bf                                  6      0.0000       0.00000       A     3.31515e-01     4.12242e-01
 c27bf                                  6      0.0000       0.00000       A     3.39727e-01     4.49760e-01
 s28bf                                 16      0.0000       0.00000       A     3.53494e-01     1.18113e+00
 h29bf                                  1      0.0000       0.00000       A     2.62399e-01     6.76733e-02
 h30bf                                  1      0.0000       0.00000       A     2.62381e-01     6.75967e-02
 h31bf                                  1      0.0000       0.00000       A     2.53506e-01     6.72855e-02
 h32bf                                  1      0.0000       0.00000       A     2.53506e-01     6.72855e-02
 h33bf                                  1      0.0000       0.00000       A     2.62491e-01     6.75393e-02
 h34bf                                  1      0.0000       0.00000       A     2.62543e-01     6.75728e-02
 h35bf                                  1      0.0000       0.00000       A     2.62410e-01     6.74914e-02
 h36bf                                  1      0.0000       0.00000       A     1.10952e-01     4.04428e-02
 h37bf                                  1      0.0000       0.00000       A     2.53583e-01     6.80915e-02
 h38bf                                  1      0.0000       0.00000       A     2.53644e-01     6.69998e-02
 h39bf                                  1      0.0000       0.00000       A     2.62744e-01     6.79622e-02
 h40bf                                  1      0.0000       0.00000       A     2.42021e-01     8.71597e-02
 h41bf                                  1      0.0000       0.00000       A     2.42021e-01     8.71597e-02
 h42bf                                  1      0.0000       0.00000       A     2.42021e-01     8.71597e-02
 h43bf                                  1      0.0000       0.00000       A     2.62577e-01     6.75105e-02
 h44bf                                  1      0.0000       0.00000       A     2.41709e-01     8.65963e-02
 h45bf                                  1      0.0000       0.00000       A     2.41709e-01     8.65963e-02
 h46bf                                  1      0.0000       0.00000       A     2.41709e-01     8.65963e-02

[ moleculetype ]
;name             nrexcl
 42                    3

[ atoms ]
;       nr            type      resi   res      atom      cgnr      charge          mass ; qtot
         1            c0bf         1   UNL        c0         1     0.02186       12.0110 ; qtot    0.022
         2            c1bf         1   UNL        c1         2    -0.14199       12.0110 ; qtot   -0.120
         3            c2bf         1   UNL        c2         3     0.30796       12.0110 ; qtot    0.188
         4            c3bf         1   UNL        c3         4    -0.12836       12.0110 ; qtot    0.059
         5            c4bf         1   UNL        c4         5     0.25875       12.0110 ; qtot    0.318
         6            c5bf         1   UNL        c5         6     0.21936       12.0110 ; qtot    0.538
         7            n6bf         1   UNL        n6         7    -0.62219       14.0070 ; qtot   -0.085
         8            c7bf         1   UNL        c7         8     0.29317       12.0110 ; qtot    0.209
         9            c8bf         1   UNL        c8         9     0.29405       12.0110 ; qtot    0.503
        10            n9bf         1   UNL        n9        10    -0.62285       14.0070 ; qtot   -0.120
        11           c10bf         1   UNL       c10        11    -0.02977       12.0110 ; qtot   -0.150
        12           c11bf         1   UNL       c11        12    -0.08754       12.0110 ; qtot   -0.238
        13           c12bf         1   UNL       c12        13    -0.11763       12.0110 ; qtot   -0.355
        14           c13bf         1   UNL       c13        14    -0.07253       12.0110 ; qtot   -0.428
        15           n14bf         1   UNL       n14        15    -0.96404       14.0070 ; qtot   -1.392
        16           c15bf         1   UNL       c15        16     0.35358       12.0110 ; qtot   -1.038
        17           c16bf         1   UNL       c16        17     0.27846       12.0110 ; qtot   -0.760
        18           n17bf         1   UNL       n17        18    -0.60355       14.0070 ; qtot   -1.363
        19           c18bf         1   UNL       c18        19     0.28639       12.0110 ; qtot   -1.077
        20           c19bf         1   UNL       c19        20    -0.03902       12.0110 ; qtot   -1.116
        21           c20bf         1   UNL       c20        21    -0.27733       12.0110 ; qtot   -1.393
        22           s21bf         1   UNL       s21        22     0.99436       32.0670 ; qtot   -0.399
        23           o22bf         1   UNL       o22        23    -0.51400       15.9990 ; qtot   -0.913
        24           o23bf         1   UNL       o23        24    -0.51400       15.9990 ; qtot   -1.427
        25           c24bf         1   UNL       c24        25    -0.29607       12.0110 ; qtot   -1.723
        26           c25bf         1   UNL       c25        26    -0.09685       12.0110 ; qtot   -1.820
        27           c26bf         1   UNL       c26        27    -0.08807       12.0110 ; qtot   -1.908
        28           c27bf         1   UNL       c27        28     0.02980       12.0110 ; qtot   -1.878
        29           s28bf         1   UNL       s28        29    -0.20156       32.0670 ; qtot   -2.080
        30           h29bf         1   UNL       h29        30     0.14328        1.0080 ; qtot   -1.936
        31           h30bf         1   UNL       h30        31     0.12777        1.0080 ; qtot   -1.809
        32           h31bf         1   UNL       h31        32     0.03158        1.0080 ; qtot   -1.777
        33           h32bf         1   UNL       h32        33     0.03160        1.0080 ; qtot   -1.745
        34           h33bf         1   UNL       h33        34     0.12421        1.0080 ; qtot   -1.621
        35           h34bf         1   UNL       h34        35     0.11884        1.0080 ; qtot   -1.502
        36           h35bf         1   UNL       h35        36     0.12770        1.0080 ; qtot   -1.375
        37           h36bf         1   UNL       h36        37     0.51181        1.0080 ; qtot   -0.863
        38           h37bf         1   UNL       h37        38     0.03589        1.0080 ; qtot   -0.827
        39           h38bf         1   UNL       h38        39     0.03700        1.0080 ; qtot   -0.790
        40           h39bf         1   UNL       h39        40     0.15079        1.0080 ; qtot   -0.639
        41           h40bf         1   UNL       h40        41     0.10467        1.0080 ; qtot   -0.534
        42           h41bf         1   UNL       h41        42     0.10467        1.0080 ; qtot   -0.430
        43           h42bf         1   UNL       h42        43     0.10467        1.0080 ; qtot   -0.325
        44           h43bf         1   UNL       h43        44     0.12225        1.0080 ; qtot   -0.203
        45           h44bf         1   UNL       h44        45     0.06764        1.0080 ; qtot   -0.135
        46           h45bf         1   UNL       h45        46     0.06764        1.0080 ; qtot   -0.068
        47           h46bf         1   UNL       h46        47     0.06760        1.0080 ; qtot   -0.000

[ bonds ]
;       ai        aj funct               r               k
         1         4     1        0.138578   331952.773291
         1         6     1        0.143397   238353.853564
         1        11     1        0.148404   214686.877783
         2         3     1        0.138622   325678.790723
         2         5     1        0.141521   284459.010498
         2        30     1        0.108434   324306.120020
         3         4     1        0.142352   251288.271777
         3        15     1        0.140593   260287.089453
         4        31     1        0.108425   321462.077686
         5         6     1        0.143377   223875.308496
         5        10     1        0.136675   270922.835840
         6         7     1        0.136376   268524.084082
         7         8     1        0.131881   374103.202393
         8         9     1        0.142216   238192.510107
         8        32     1        0.108820   315940.162988
         9        10     1        0.131846   380187.239941
         9        33     1        0.108836   315483.763770
        11        12     1        0.140493   285621.332031
        11        14     1        0.140476   283878.296631
        12        13     1        0.139603   314284.132520
        12        34     1        0.108482   322447.375977
        13        27     1        0.139751   309981.359424
        13        35     1        0.108620   319822.595264
        14        26     1        0.140135   292705.351709
        14        36     1        0.108440   322400.694141
        15        16     1        0.138908   287909.073975
        15        37     1        0.101485   406811.259766
        16        17     1        0.141520   257222.712939
        16        21     1        0.141314   265581.366357
        17        18     1        0.133244   341315.137256
        17        38     1        0.108642   319937.154736
        18        19     1        0.133977   313656.558057
        19        20     1        0.139506   299656.731641
        19        39     1        0.108702   319547.177539
        20        21     1        0.139402   313134.068799
        20        40     1        0.108446   326160.114160
        21        22     1        0.180715   124483.627490
        22        23     1        0.147464   495020.215039
        22        24     1        0.147464   495020.215039
        22        25     1        0.180772   140787.539600
        25        41     1        0.109028   319230.108789
        25        42     1        0.109028   319230.108789
        25        43     1        0.109028   319230.108789
        26        27     1        0.140321   290653.853564
        26        29     1        0.178592   143736.667139
        27        44     1        0.108518   321131.372119
        28        29     1        0.182915   131661.061914
        28        45     1        0.109154   309655.940039
        28        46     1        0.109154   309655.940039
        28        47     1        0.109154   309655.940039

[ angles ]
;       ai        aj        ak funct           theta             cth
         1         4         3     1      122.355141      711.788891
         1         4        31     1      118.732437      414.907609
         1         6         5     1      118.898605      694.100293
         1         6         7     1      120.370407      430.545864
         1        11        12     1      120.735474      475.283656
         1        11        14     1      120.254333      436.372060
         2         3         4     1      119.328163      642.905028
         2         3        15     1      121.254745      492.361087
         2         5         6     1      120.561111      663.910960
         2         5        10     1      118.281189      431.308051
         3         2         5     1      120.257889      537.525444
         3         2        30     1      121.917053      423.581575
         3         4        31     1      118.503174      446.851340
         3        15        16     1      126.297546      421.362209
         3        15        37     1      115.426346      433.799388
         4         1         6     1      118.383949      533.267099
         4         1        11     1      119.127548      473.452837
         4         3        15     1      119.251770      541.101022
         5         2        30     1      117.843239      439.647833
         5         6         7     1      120.225365      782.040649
         5        10         9     1      116.661819      559.934704
         6         1        11     1      122.517883      448.756122
         6         5        10     1      121.313904      706.695897
         6         7         8     1      117.602097      602.197982
         7         8         9     1      122.256546      732.863901
         7         8        32     1      117.339157      362.478902
         8         9        10     1      122.299545      738.442163
         8         9        33     1      120.145851      429.987304
         9         8        32     1      120.142014      430.475797
        10         9        33     1      117.380966      342.428057
        11        12        13     1      120.309204      702.916724
        11        12        34     1      119.504196      406.902268
        11        14        26     1      121.014694      669.195035
        11        14        36     1      119.252792      399.822711
        12        11        14     1      118.941711      692.782961
        12        13        27     1      120.641823      707.641664
        12        13        35     1      119.804626      429.931856
        13        12        34     1      120.190048      414.143762
        13        27        26     1      119.649025      665.751867
        13        27        44     1      120.153305      421.978419
        14        26        27     1      119.437302      679.053764
        14        26        29     1      119.898804      375.972104
        15        16        17     1      122.505417      578.362793
        15        16        21     1      121.389572      543.101089
        16        15        37     1      114.551170      450.222622
        16        17        18     1      124.232620      770.104221
        16        17        38     1      119.153419      415.430290
        16        21        20     1      120.275772      760.585008
        16        21        22     1      121.663406      744.979280
        17        16        21     1      115.672928      673.644813
        17        18        19     1      118.320412      693.264846
        18        17        38     1      116.504784      340.209553
        18        19        20     1      122.754715      730.070077
        18        19        39     1      116.530663      356.374383
        19        20        21     1      118.684891      679.603961
        19        20        40     1      121.212906      424.346476
        20        19        39     1      120.538696      415.343272
        20        21        22     1      117.699501      539.880923
        21        20        40     1      120.270653      343.599700
        21        22        23     1      107.938034      640.902280
        21        22        24     1      107.938034      640.902280
        21        22        25     1      103.486084      654.077513
        22        25        41     1      107.672241      569.998432
        22        25        42     1      107.672241      569.998432
        22        25        43     1      107.672256      569.998432
        23        22        24     1      120.015259      741.792249
        23        22        25     1      107.539932      732.341476
        24        22        25     1      107.539932      732.341476
        26        14        36     1      119.921730      396.063297
        26        27        44     1      120.216476      412.046463
        26        29        28     1      101.562431      840.392688
        27        13        35     1      119.541885      434.657083
        27        26        29     1      120.573631      400.086669
        29        28        45     1      109.416100      446.901776
        29        28        46     1      109.416100      446.901776
        29        28        47     1      109.416100      446.901776
        41        25        42     1      111.147987      344.776258
        41        25        43     1      111.147987      344.776258
        42        25        43     1      111.147987      344.776258
        45        28        46     1      109.657486      354.169254
        45        28        47     1      109.657486      354.169254
        46        28        47     1      109.657486      354.169254

[ dihedrals ] ; propers for gromacs 4.5 or higher, use funct 9
;       ai        aj        ak        al funct           phase               k        pn
         1         4         3         2     9        0.000000        0.168876         1
         1         4         3         2     9      180.000000       14.180929         2
         1         4         3         2     9        0.000000       -0.834747         3
         1         4         3         2     9      180.000000       -0.239880         4
         1         4         3        15     9        0.000000        0.194427         1
         1         4         3        15     9      180.000000       15.480423         2
         1         4         3        15     9        0.000000        0.083805         3
         1         4         3        15     9      180.000000       -0.414484         4
         1         6         5         2     9        0.000000        0.125838         1
         1         6         5         2     9      180.000000       11.569619         2
         1         6         5         2     9        0.000000       -0.454954         3
         1         6         5         2     9      180.000000       -0.220805         4
         1         6         5        10     9        0.000000       -0.347351         1
         1         6         5        10     9      180.000000       10.019842         2
         1         6         5        10     9        0.000000        0.061031         3
         1         6         5        10     9      180.000000       -0.269117         4
         1         6         7         8     9        0.000000        0.545859         1
         1         6         7         8     9      180.000000       16.537226         2
         1         6         7         8     9        0.000000        0.386316         3
         1         6         7         8     9      180.000000       -0.359837         4
         1        11        12        13     9        0.000000        0.289261         1
         1        11        12        13     9      180.000000       15.443262         2
         1        11        12        13     9        0.000000       -0.044255         3
         1        11        12        13     9      180.000000       -0.178141         4
         1        11        12        34     9        0.000000       -0.055835         1
         1        11        12        34     9      180.000000       12.895120         2
         1        11        12        34     9        0.000000       -0.193234         3
         1        11        12        34     9      180.000000        0.220932         4
         1        11        14        26     9        0.000000        0.131128         1
         1        11        14        26     9      180.000000       15.359002         2
         1        11        14        26     9        0.000000       -0.034949         3
         1        11        14        26     9      180.000000       -0.287239         4
         1        11        14        36     9        0.000000       -0.082286         1
         1        11        14        36     9      180.000000       12.919265         2
         1        11        14        36     9        0.000000       -0.205397         3
         1        11        14        36     9      180.000000        0.232660         4
         2         3         4        31     9        0.000000       -0.062430         1
         2         3         4        31     9      180.000000       11.927328         2
         2         3         4        31     9        0.000000       -0.431705         3
         2         3         4        31     9      180.000000        0.110490         4
         2         3        15        16     9        0.000000       -0.167871         1
         2         3        15        16     9      180.000000        3.526327         2
         2         3        15        16     9        0.000000       -0.356690         3
         2         3        15        16     9      180.000000        0.139573         4
         2         3        15        37     9        0.000000       -0.457731         1
         2         3        15        37     9      180.000000        3.512782         2
         2         3        15        37     9        0.000000       -0.099182         3
         2         3        15        37     9      180.000000        0.073474         4
         2         5         6         7     9        0.000000        0.337417         1
         2         5         6         7     9      180.000000       11.181904         2
         2         5         6         7     9        0.000000       -0.066177         3
         2         5         6         7     9      180.000000       -0.252704         4
         2         5        10         9     9        0.000000       -0.023334         1
         2         5        10         9     9      180.000000       18.424194         2
         2         5        10         9     9        0.000000        0.154347         3
         2         5        10         9     9      180.000000       -0.275637         4
         3         2         5         6     9        0.000000       -0.530340         1
         3         2         5         6     9      180.000000       13.660331         2
         3         2         5         6     9        0.000000       -0.959970         3
         3         2         5         6     9      180.000000       -0.183422         4
         3         2         5        10     9        0.000000       -0.306896         1
         3         2         5        10     9      180.000000       14.010283         2
         3         2         5        10     9        0.000000       -0.425194         3
         3         2         5        10     9      180.000000       -0.392180         4
         3         4         1         6     9        0.000000       -0.213604         1
         3         4         1         6     9      180.000000       19.547512         2
         3         4         1         6     9        0.000000       -1.547022         3
         3         4         1         6     9      180.000000       -0.316601         4
         3         4         1        11     9        0.000000        0.368239         1
         3         4         1        11     9      180.000000       19.406629         2
         3         4         1        11     9        0.000000        0.068430         3
         3         4         1        11     9      180.000000       -0.797294         4
         3        15        16        17     9        0.000000        1.786047         1
         3        15        16        17     9      180.000000        3.116500         2
         3        15        16        17     9        0.000000       -0.286577         3
         3        15        16        17     9      180.000000        0.145436         4
         3        15        16        21     9        0.000000       -1.816149         1
         3        15        16        21     9      180.000000        4.619862         2
         3        15        16        21     9        0.000000       -0.590150         3
         3        15        16        21     9      180.000000        0.059912         4
         4         1         6         5     9        0.000000       -0.398541         1
         4         1         6         5     9      180.000000       10.626231         2
         4         1         6         5     9        0.000000       -0.855774         3
         4         1         6         5     9      180.000000        0.035189         4
         4         1         6         7     9        0.000000        0.062299         1
         4         1         6         7     9      180.000000        9.615716         2
         4         1         6         7     9        0.000000       -0.275917         3
         4         1         6         7     9      180.000000       -0.087467         4
         4         1        11        12     9        0.000000       -0.367363         1
         4         1        11        12     9      180.000000        4.301063         2
         4         1        11        12     9        0.000000        0.076005         3
         4         1        11        12     9      180.000000        0.605950         4
         4         1        11        14     9        0.000000       -0.096945         1
         4         1        11        14     9      180.000000        4.400370         2
         4         1        11        14     9        0.000000        0.032591         3
         4         1        11        14     9      180.000000        0.659753         4
         4         3         2         5     9        0.000000       -0.167718         1
         4         3         2         5     9      180.000000       17.290347         2
         4         3         2         5     9        0.000000       -1.146064         3
         4         3         2         5     9      180.000000       -0.418463         4
         4         3         2        30     9        0.000000        0.061252         1
         4         3         2        30     9      180.000000       13.337189         2
         4         3         2        30     9        0.000000       -0.359259         3
         4         3         2        30     9      180.000000        0.130980         4
         4         3        15        16     9        0.000000       -0.216344         1
         4         3        15        16     9      180.000000        3.383541         2
         4         3        15        16     9        0.000000        0.029880         3
         4         3        15        16     9      180.000000        0.116824         4
         4         3        15        37     9        0.000000       -0.412558         1
         4         3        15        37     9      180.000000        3.316538         2
         4         3        15        37     9        0.000000        0.047273         3
         4         3        15        37     9      180.000000        0.093660         4
         5         2         3        15     9        0.000000        0.246511         1
         5         2         3        15     9      180.000000       19.522853         2
         5         2         3        15     9        0.000000        0.055608         3
         5         2         3        15     9      180.000000       -0.772829         4
         5         6         1        11     9        0.000000        0.071530         1
         5         6         1        11     9      180.000000       12.640288         2
         5         6         1        11     9        0.000000       -0.002735         3
         5         6         1        11     9      180.000000       -0.441883         4
         5         6         7         8     9        0.000000        0.172539         1
         5         6         7         8     9      180.000000       16.817876         2
         5         6         7         8     9        0.000000       -0.048042         3
         5         6         7         8     9      180.000000       -0.239301         4
         5        10         9         8     9        0.000000       -0.161990         1
         5        10         9         8     9      180.000000       25.805864         2
         5        10         9         8     9        0.000000       -0.989158         3
         5        10         9         8     9      180.000000       -0.201960         4
         5        10         9        33     9        0.000000        0.808513         1
         5        10         9        33     9      180.000000       23.535886         2
         5        10         9        33     9        0.000000        0.064004         3
         5        10         9        33     9      180.000000       -0.475717         4
         6         1         4        31     9        0.000000        0.176255         1
         6         1         4        31     9      180.000000       15.832435         2
         6         1         4        31     9        0.000000       -0.324776         3
         6         1         4        31     9      180.000000        0.169852         4
         6         1        11        12     9        0.000000        0.002199         1
         6         1        11        12     9      180.000000        3.974743         2
         6         1        11        12     9        0.000000       -0.196657         3
         6         1        11        12     9      180.000000        0.795570         4
         6         1        11        14     9        0.000000       -0.803627         1
         6         1        11        14     9      180.000000        4.118045         2
         6         1        11        14     9        0.000000       -0.138722         3
         6         1        11        14     9      180.000000        0.756373         4
         6         5         2        30     9        0.000000       -0.168579         1
         6         5         2        30     9      180.000000       10.564597         2
         6         5         2        30     9        0.000000       -0.261929         3
         6         5         2        30     9      180.000000       -0.006921         4
         6         5        10         9     9        0.000000       -0.113243         1
         6         5        10         9     9      180.000000       16.457234         2
         6         5        10         9     9        0.000000        0.035209         3
         6         5        10         9     9      180.000000       -0.227308         4
         6         7         8         9     9        0.000000        0.104497         1
         6         7         8         9     9      180.000000       25.053764         2
         6         7         8         9     9        0.000000       -0.955082         3
         6         7         8         9     9      180.000000       -0.160012         4
         6         7         8        32     9        0.000000        0.726539         1
         6         7         8        32     9      180.000000       22.911942         2
         6         7         8        32     9        0.000000        0.102107         3
         6         7         8        32     9      180.000000       -0.545266         4
         7         6         1        11     9        0.000000       -0.505831         1
         7         6         1        11     9      180.000000       12.533749         2
         7         6         1        11     9        0.000000       -0.142544         3
         7         6         1        11     9      180.000000       -0.477731         4
         7         6         5        10     9        0.000000        0.152873         1
         7         6         5        10     9      180.000000       11.072213         2
         7         6         5        10     9        0.000000        0.155830         3
         7         6         5        10     9      180.000000       -0.400050         4
         7         8         9        10     9        0.000000       -0.713203         1
         7         8         9        10     9      180.000000       11.742392         2
         7         8         9        10     9        0.000000       -0.552181         3
         7         8         9        10     9      180.000000       -0.521535         4
         7         8         9        33     9        0.000000       -0.026031         1
         7         8         9        33     9      180.000000        9.508286         2
         7         8         9        33     9        0.000000       -0.255749         3
         7         8         9        33     9      180.000000       -0.134502         4
        10         5         2        30     9        0.000000        0.016940         1
        10         5         2        30     9      180.000000       11.980067         2
        10         5         2        30     9        0.000000       -0.349905         3
        10         5         2        30     9      180.000000        0.012863         4
        10         9         8        32     9        0.000000       -0.199022         1
        10         9         8        32     9      180.000000        9.267615         2
        10         9         8        32     9        0.000000       -0.318099         3
        10         9         8        32     9      180.000000       -0.090079         4
        11         1         4        31     9        0.000000        0.029740         1
        11         1         4        31     9      180.000000       15.141779         2
        11         1         4        31     9        0.000000       -0.132002         3
        11         1         4        31     9      180.000000        0.075408         4
        11        12        13        27     9        0.000000       -0.067870         1
        11        12        13        27     9      180.000000       19.055498         2
        11        12        13        27     9        0.000000       -1.501175         3
        11        12        13        27     9      180.000000       -0.477912         4
        11        12        13        35     9        0.000000       -0.010789         1
        11        12        13        35     9      180.000000       14.678481         2
        11        12        13        35     9        0.000000       -0.542394         3
        11        12        13        35     9      180.000000        0.059507         4
        11        14        26        27     9        0.000000       -0.011678         1
        11        14        26        27     9      180.000000       17.497796         2
        11        14        26        27     9        0.000000       -1.231779         3
        11        14        26        27     9      180.000000       -0.342739         4
        11        14        26        29     9        0.000000       -0.024551         1
        11        14        26        29     9      180.000000       14.457696         2
        11        14        26        29     9        0.000000       -0.027935         3
        11        14        26        29     9      180.000000       -0.238414         4
        12        11        14        26     9        0.000000       -0.122892         1
        12        11        14        26     9      180.000000       18.500311         2
        12        11        14        26     9        0.000000       -1.555705         3
        12        11        14        26     9      180.000000       -0.380614         4
        12        11        14        36     9        0.000000        0.010827         1
        12        11        14        36     9      180.000000       13.947186         2
        12        11        14        36     9        0.000000       -0.497170         3
        12        11        14        36     9      180.000000        0.131944         4
        12        13        27        26     9        0.000000        0.013701         1
        12        13        27        26     9      180.000000       18.551086         2
        12        13        27        26     9        0.000000       -1.629960         3
        12        13        27        26     9      180.000000       -0.431586         4
        12        13        27        44     9        0.000000        0.106782         1
        12        13        27        44     9      180.000000       14.174490         2
        12        13        27        44     9        0.000000       -0.712094         3
        12        13        27        44     9      180.000000        0.197616         4
        13        12        11        14     9        0.000000       -0.096947         1
        13        12        11        14     9      180.000000       18.685856         2
        13        12        11        14     9        0.000000       -1.242384         3
        13        12        11        14     9      180.000000       -0.385295         4
        13        27        26        14     9        0.000000        0.039819         1
        13        27        26        14     9      180.000000       17.323816         2
        13        27        26        14     9        0.000000       -1.201628         3
        13        27        26        14     9      180.000000       -0.300752         4
        13        27        26        29     9        0.000000        0.097659         1
        13        27        26        29     9      180.000000       14.776841         2
        13        27        26        29     9        0.000000       -0.016941         3
        13        27        26        29     9      180.000000       -0.131675         4
        14        11        12        34     9        0.000000        0.084081         1
        14        11        12        34     9      180.000000       14.021148         2
        14        11        12        34     9        0.000000       -0.489452         3
        14        11        12        34     9      180.000000        0.103239         4
        14        26        27        44     9        0.000000        0.175230         1
        14        26        27        44     9      180.000000       13.030519         2
        14        26        27        44     9        0.000000       -0.585756         3
        14        26        27        44     9      180.000000        0.118978         4
        14        26        29        28     9        0.000000        0.436160         1
        14        26        29        28     9      180.000000        3.261582         2
        14        26        29        28     9        0.000000       -0.307015         3
        14        26        29        28     9      180.000000        0.564856         4
        15         3         2        30     9        0.000000       -0.006423         1
        15         3         2        30     9      180.000000       15.238159         2
        15         3         2        30     9        0.000000       -0.072526         3
        15         3         2        30     9      180.000000        0.161232         4
        15         3         4        31     9        0.000000       -0.052764         1
        15         3         4        31     9      180.000000       14.029721         2
        15         3         4        31     9        0.000000       -0.046524         3
        15         3         4        31     9      180.000000        0.147453         4
        15        16        17        18     9        0.000000        0.186749         1
        15        16        17        18     9      180.000000       16.683917         2
        15        16        17        18     9        0.000000        0.179116         3
        15        16        17        18     9      180.000000       -0.684725         4
        15        16        17        38     9        0.000000       -0.299543         1
        15        16        17        38     9      180.000000       14.371219         2
        15        16        17        38     9        0.000000       -0.253273         3
        15        16        17        38     9      180.000000        0.145399         4
        15        16        21        20     9        0.000000        0.142199         1
        15        16        21        20     9      180.000000       15.897986         2
        15        16        21        20     9        0.000000        0.030266         3
        15        16        21        20     9      180.000000       -0.460852         4
        15        16        21        22     9        0.000000       -0.927876         1
        15        16        21        22     9      180.000000       13.516794         2
        15        16        21        22     9        0.000000       -0.073923         3
        15        16        21        22     9      180.000000       -0.622706         4
        16        17        18        19     9        0.000000        0.319722         1
        16        17        18        19     9      180.000000       22.949103         2
        16        17        18        19     9        0.000000       -0.741217         3
        16        17        18        19     9      180.000000        0.175923         4
        16        21        20        19     9        0.000000       -0.049559         1
        16        21        20        19     9      180.000000       18.886873         2
        16        21        20        19     9        0.000000       -2.021566         3
        16        21        20        19     9      180.000000       -0.405198         4
        16        21        20        40     9        0.000000        0.229105         1
        16        21        20        40     9      180.000000       14.976782         2
        16        21        20        40     9        0.000000       -0.507226         3
        16        21        20        40     9      180.000000        0.085320         4
        16        21        22        23     9        0.000000       -1.334284         1
        16        21        22        23     9      180.000000        0.814377         2
        16        21        22        23     9        0.000000        0.785313         3
        16        21        22        23     9      180.000000       -0.187784         4
        16        21        22        24     9        0.000000       -1.334284         1
        16        21        22        24     9      180.000000        0.814377         2
        16        21        22        24     9        0.000000        0.785313         3
        16        21        22        24     9      180.000000       -0.187784         4
        16        21        22        25     9        0.000000        3.729087         1
        16        21        22        25     9      180.000000       -2.195928         2
        16        21        22        25     9        0.000000        0.799428         3
        16        21        22        25     9      180.000000        0.054293         4
        17        16        15        37     9        0.000000       -1.272590         1
        17        16        15        37     9      180.000000        2.989698         2
        17        16        15        37     9        0.000000       -0.423807         3
        17        16        15        37     9      180.000000        0.040258         4
        17        16        21        20     9        0.000000       -0.037262         1
        17        16        21        20     9      180.000000       14.380144         2
        17        16        21        20     9        0.000000       -0.900345         3
        17        16        21        20     9      180.000000       -0.221952         4
        17        16        21        22     9        0.000000        0.366401         1
        17        16        21        22     9      180.000000       11.025740         2
        17        16        21        22     9        0.000000        0.150288         3
        17        16        21        22     9      180.000000       -0.363523         4
        17        18        19        20     9        0.000000        0.177563         1
        17        18        19        20     9      180.000000       22.523862         2
        17        18        19        20     9        0.000000       -0.901752         3
        17        18        19        20     9      180.000000       -0.193725         4
        17        18        19        39     9        0.000000        0.988694         1
        17        18        19        39     9      180.000000       20.417146         2
        17        18        19        39     9        0.000000        0.253449         3
        17        18        19        39     9      180.000000       -0.430136         4
        18        17        16        21     9        0.000000       -0.510166         1
        18        17        16        21     9      180.000000       14.375530         2
        18        17        16        21     9        0.000000       -0.595358         3
        18        17        16        21     9      180.000000       -0.489937         4
        18        19        20        21     9        0.000000       -0.220826         1
        18        19        20        21     9      180.000000       18.549630         2
        18        19        20        21     9        0.000000       -1.222990         3
        18        19        20        21     9      180.000000       -0.581963         4
        18        19        20        40     9        0.000000        0.066372         1
        18        19        20        40     9      180.000000       14.573595         2
        18        19        20        40     9        0.000000       -0.318036         3
        18        19        20        40     9      180.000000       -0.017204         4
        19        18        17        38     9        0.000000        1.115355         1
        19        18        17        38     9      180.000000       20.962220         2
        19        18        17        38     9        0.000000        0.247396         3
        19        18        17        38     9      180.000000       -0.016300         4
        19        20        21        22     9        0.000000        0.192524         1
        19        20        21        22     9      180.000000       13.995355         2
        19        20        21        22     9        0.000000        0.189775         3
        19        20        21        22     9      180.000000       -0.443899         4
        20        21        22        23     9        0.000000       -0.090527         1
        20        21        22        23     9      180.000000        0.655865         2
        20        21        22        23     9        0.000000       -0.321290         3
        20        21        22        23     9      180.000000       -0.045698         4
        20        21        22        24     9        0.000000       -0.090527         1
        20        21        22        24     9      180.000000        0.655865         2
        20        21        22        24     9        0.000000       -0.321290         3
        20        21        22        24     9      180.000000       -0.045698         4
        20        21        22        25     9        0.000000        0.119865         1
        20        21        22        25     9      180.000000       -0.559451         2
        20        21        22        25     9        0.000000       -0.551232         3
        20        21        22        25     9      180.000000        0.255503         4
        21        16        15        37     9        0.000000        2.440458         1
        21        16        15        37     9      180.000000        3.205589         2
        21        16        15        37     9        0.000000       -0.727467         3
        21        16        15        37     9      180.000000        0.027702         4
        21        16        17        38     9        0.000000        0.058995         1
        21        16        17        38     9      180.000000       12.296400         2
        21        16        17        38     9        0.000000       -0.329284         3
        21        16        17        38     9      180.000000        0.069067         4
        21        20        19        39     9        0.000000        0.008007         1
        21        20        19        39     9      180.000000       14.871301         2
        21        20        19        39     9        0.000000       -0.365300         3
        21        20        19        39     9      180.000000       -0.122425         4
        21        22        25        41     9        0.000000        0.134671         1
        21        22        25        41     9      180.000000       -0.180390         2
        21        22        25        41     9        0.000000        0.326690         3
        21        22        25        41     9      180.000000       -0.016353         4
        21        22        25        42     9        0.000000        0.134671         1
        21        22        25        42     9      180.000000       -0.180390         2
        21        22        25        42     9        0.000000        0.326690         3
        21        22        25        42     9      180.000000       -0.016353         4
        21        22        25        43     9        0.000000        0.134671         1
        21        22        25        43     9      180.000000       -0.180390         2
        21        22        25        43     9        0.000000        0.326690         3
        21        22        25        43     9      180.000000       -0.016353         4
        22        21        20        40     9        0.000000       -0.032266         1
        22        21        20        40     9      180.000000       12.082713         2
        22        21        20        40     9        0.000000       -0.269976         3
        22        21        20        40     9      180.000000        0.014566         4
        23        22        25        41     9        0.000000       -0.020339         1
        23        22        25        41     9      180.000000       -0.042566         2
        23        22        25        41     9        0.000000        0.357266         3
        23        22        25        41     9      180.000000        0.004050         4
        23        22        25        42     9        0.000000       -0.020339         1
        23        22        25        42     9      180.000000       -0.042566         2
        23        22        25        42     9        0.000000        0.357266         3
        23        22        25        42     9      180.000000        0.004050         4
        23        22        25        43     9        0.000000       -0.020339         1
        23        22        25        43     9      180.000000       -0.042566         2
        23        22        25        43     9        0.000000        0.357266         3
        23        22        25        43     9      180.000000        0.004050         4
        24        22        25        41     9        0.000000       -0.020339         1
        24        22        25        41     9      180.000000       -0.042566         2
        24        22        25        41     9        0.000000        0.357266         3
        24        22        25        41     9      180.000000        0.004050         4
        24        22        25        42     9        0.000000       -0.020339         1
        24        22        25        42     9      180.000000       -0.042566         2
        24        22        25        42     9        0.000000        0.357266         3
        24        22        25        42     9      180.000000        0.004050         4
        24        22        25        43     9        0.000000       -0.020339         1
        24        22        25        43     9      180.000000       -0.042566         2
        24        22        25        43     9        0.000000        0.357266         3
        24        22        25        43     9      180.000000        0.004050         4
        26        27        13        35     9        0.000000        0.026234         1
        26        27        13        35     9      180.000000       14.147876         2
        26        27        13        35     9        0.000000       -0.575603         3
        26        27        13        35     9      180.000000        0.125834         4
        26        29        28        45     9        0.000000        0.022286         1
        26        29        28        45     9      180.000000        0.026476         2
        26        29        28        45     9        0.000000        0.566402         3
        26        29        28        45     9      180.000000        0.053046         4
        26        29        28        46     9        0.000000        0.022286         1
        26        29        28        46     9      180.000000        0.026476         2
        26        29        28        46     9        0.000000        0.566402         3
        26        29        28        46     9      180.000000        0.053046         4
        26        29        28        47     9        0.000000        0.022286         1
        26        29        28        47     9      180.000000        0.026476         2
        26        29        28        47     9        0.000000        0.566402         3
        26        29        28        47     9      180.000000        0.053046         4
        27        13        12        34     9        0.000000        0.073683         1
        27        13        12        34     9      180.000000       14.738117         2
        27        13        12        34     9        0.000000       -0.707470         3
        27        13        12        34     9      180.000000        0.059335         4
        27        26        14        36     9        0.000000        0.093713         1
        27        26        14        36     9      180.000000       13.351694         2
        27        26        14        36     9        0.000000       -0.541815         3
        27        26        14        36     9      180.000000        0.138447         4
        27        26        29        28     9        0.000000        0.469565         1
        27        26        29        28     9      180.000000        3.286542         2
        27        26        29        28     9        0.000000       -0.220954         3
        27        26        29        28     9      180.000000        0.553106         4
        29        26        14        36     9        0.000000        0.027622         1
        29        26        14        36     9      180.000000       12.581003         2
        29        26        14        36     9        0.000000       -0.138832         3
        29        26        14        36     9      180.000000        0.172860         4
        29        26        27        44     9        0.000000       -0.030072         1
        29        26        27        44     9      180.000000       12.372527         2
        29        26        27        44     9        0.000000       -0.126451         3
        29        26        27        44     9      180.000000        0.200356         4
        32         8         9        33     9        0.000000       -0.431715         1
        32         8         9        33     9      180.000000        6.869070         2
        32         8         9        33     9        0.000000       -0.569257         3
        32         8         9        33     9      180.000000        0.186659         4
        34        12        13        35     9        0.000000       -0.150283         1
        34        12        13        35     9      180.000000       12.066895         2
        34        12        13        35     9        0.000000       -0.711490         3
        34        12        13        35     9      180.000000        0.260928         4
        35        13        27        44     9        0.000000       -0.134969         1
        35        13        27        44     9      180.000000       11.867347         2
        35        13        27        44     9        0.000000       -0.656327         3
        35        13        27        44     9      180.000000        0.286270         4
        39        19        20        40     9        0.000000       -0.049751         1
        39        19        20        40     9      180.000000       11.944933         2
        39        19        20        40     9        0.000000       -0.710210         3
        39        19        20        40     9      180.000000        0.205813         4

[ dihedrals ] ; impropers
;       ai        aj        ak        al funct           phase               k        pn
         1         4         6        11     4      180.000000        0.498042         2
         1         6        11         4     4      180.000000        0.498042         2
         1        11         4         6     4      180.000000        0.498042         2
         8         7         9        32     4      180.000000        4.409855         2
         8         9        32         7     4      180.000000        4.409855         2
         8        32         7         9     4      180.000000        4.409855         2
         9         8        10        33     4      180.000000        4.162411         2
         9        10        33         8     4      180.000000        4.162411         2
         9        33         8        10     4      180.000000        4.162411         2
        13        12        27        35     4      180.000000        0.281588         2
        13        27        35        12     4      180.000000        0.281588         2
        13        35        12        27     4      180.000000        0.281588         2
        17        16        18        38     4      180.000000        3.547249         2
        17        18        38        16     4      180.000000        3.547249         2
        17        38        16        18     4      180.000000        3.547249         2
        19        18        20        39     4      180.000000        3.347116         2
        19        20        39        18     4      180.000000        3.347116         2
        19        39        18        20     4      180.000000        3.347116         2
        27        13        26        44     4      180.000000        0.136327         2
        27        26        44        13     4      180.000000        0.136327         2
        27        44        13        26     4      180.000000        0.136327         2

[ pairs ]
;       ai        aj funct
         1         2     1
         1         8     1
         1        10     1
         1        13     1
         1        15     1
         1        26     1
         1        34     1
         1        36     1
         2         7     1
         2         9     1
         2        16     1
         2        31     1
         2        37     1
         3         6     1
         3        10     1
         3        11     1
         3        17     1
         3        21     1
         4         5     1
         4         7     1
         4        12     1
         4        14     1
         4        16     1
         4        30     1
         4        37     1
         5         8     1
         5        11     1
         5        15     1
         5        33     1
         6         9     1
         6        12     1
         6        14     1
         6        30     1
         6        31     1
         6        32     1
         7        10     1
         7        11     1
         7        33     1
        10        30     1
        10        32     1
        11        27     1
        11        29     1
        11        31     1
        11        35     1
        12        26     1
        12        36     1
        12        44     1
        13        14     1
        13        29     1
        14        28     1
        14        34     1
        14        44     1
        15        18     1
        15        20     1
        15        22     1
        15        30     1
        15        31     1
        15        38     1
        16        19     1
        16        23     1
        16        24     1
        16        25     1
        16        40     1
        17        20     1
        17        22     1
        17        37     1
        17        39     1
        18        21     1
        18        40     1
        19        22     1
        19        38     1
        20        23     1
        20        24     1
        20        25     1
        21        37     1
        21        38     1
        21        39     1
        21        41     1
        21        42     1
        21        43     1
        22        40     1
        23        41     1
        23        42     1
        23        43     1
        24        41     1
        24        42     1
        24        43     1
        26        35     1
        26        45     1
        26        46     1
        26        47     1
        27        28     1
        27        34     1
        27        36     1
        29        36     1
        29        44     1
        32        33     1
        34        35     1
        35        44     1
        39        40     1
