; ITP file created by ByteFF-ML, 2026-02-21 07:43:07.244469

[ atomtypes ]
;name           bonded.type        at.num        mass        charge   ptype           sigma         epsilon
 c0bf                                   6      0.0000       0.00000       A     3.31149e-01     4.10543e-01
 c1bf                                   6      0.0000       0.00000       A     3.31696e-01     4.13508e-01
 c2bf                                   6      0.0000       0.00000       A     3.31534e-01     4.11219e-01
 c3bf                                   6      0.0000       0.00000       A     3.31572e-01     4.14462e-01
 c4bf                                   6      0.0000       0.00000       A     3.31387e-01     4.12836e-01
 c5bf                                   6      0.0000       0.00000       A     3.31582e-01     4.11652e-01
 n6bf                                   7      0.0000       0.00000       A     3.38246e-01     3.93082e-01
 c7bf                                   6      0.0000       0.00000       A     3.31514e-01     4.13144e-01
 c8bf                                   6      0.0000       0.00000       A     3.31562e-01     4.13392e-01
 n9bf                                   7      0.0000       0.00000       A     3.38456e-01     3.92772e-01
 c10bf                                  6      0.0000       0.00000       A     3.31413e-01     4.10884e-01
 c11bf                                  6      0.0000       0.00000       A     3.31467e-01     4.13299e-01
 c12bf                                  6      0.0000       0.00000       A     3.31476e-01     4.12791e-01
 c13bf                                  6      0.0000       0.00000       A     3.31448e-01     4.12879e-01
 c14bf                                  6      0.0000       0.00000       A     3.31500e-01     4.13036e-01
 c15bf                                  6      0.0000       0.00000       A     3.31391e-01     4.13993e-01
 n16bf                                  7      0.0000       0.00000       A     3.27929e-01     6.45227e-01
 c17bf                                  6      0.0000       0.00000       A     3.31581e-01     4.12886e-01
 c18bf                                  6      0.0000       0.00000       A     3.31706e-01     4.11679e-01
 n19bf                                  7      0.0000       0.00000       A     3.38344e-01     3.92967e-01
 c20bf                                  6      0.0000       0.00000       A     3.31482e-01     4.12140e-01
 c21bf                                  6      0.0000       0.00000       A     3.31194e-01     4.12903e-01
 c22bf                                  6      0.0000       0.00000       A     3.31298e-01     4.15822e-01
 s23bf                                 16      0.0000       0.00000       A     4.05645e-01     2.55729e-01
 o24bf                                  8      0.0000       0.00000       A     3.04857e-01     6.11370e-01
 o25bf                                  8      0.0000       0.00000       A     3.04857e-01     6.11370e-01
 c26bf                                  6      0.0000       0.00000       A     3.39611e-01     4.49156e-01
 br27bf                                35      0.0000       0.00000       A     3.61377e-01     1.64480e+00
 h28bf                                  1      0.0000       0.00000       A     2.62399e-01     6.76733e-02
 h29bf                                  1      0.0000       0.00000       A     2.62381e-01     6.75967e-02
 h30bf                                  1      0.0000       0.00000       A     2.53506e-01     6.72855e-02
 h31bf                                  1      0.0000       0.00000       A     2.53506e-01     6.72855e-02
 h32bf                                  1      0.0000       0.00000       A     2.62491e-01     6.75393e-02
 h33bf                                  1      0.0000       0.00000       A     2.62500e-01     6.73749e-02
 h34bf                                  1      0.0000       0.00000       A     2.62554e-01     6.70764e-02
 h35bf                                  1      0.0000       0.00000       A     2.62427e-01     6.72616e-02
 h36bf                                  1      0.0000       0.00000       A     1.10952e-01     4.04428e-02
 h37bf                                  1      0.0000       0.00000       A     2.53583e-01     6.80915e-02
 h38bf                                  1      0.0000       0.00000       A     2.53644e-01     6.69998e-02
 h39bf                                  1      0.0000       0.00000       A     2.62744e-01     6.79622e-02
 h40bf                                  1      0.0000       0.00000       A     2.42021e-01     8.71597e-02
 h41bf                                  1      0.0000       0.00000       A     2.42021e-01     8.71597e-02
 h42bf                                  1      0.0000       0.00000       A     2.42021e-01     8.71597e-02

[ moleculetype ]
;name             nrexcl
 43                    3

[ atoms ]
;       nr            type      resi   res      atom      cgnr      charge          mass ; qtot
         1            c0bf         1   UNL        c0         1     0.01794       12.0110 ; qtot    0.018
         2            c1bf         1   UNL        c1         2    -0.14199       12.0110 ; qtot   -0.124
         3            c2bf         1   UNL        c2         3     0.30796       12.0110 ; qtot    0.184
         4            c3bf         1   UNL        c3         4    -0.12581       12.0110 ; qtot    0.058
         5            c4bf         1   UNL        c4         5     0.25875       12.0110 ; qtot    0.317
         6            c5bf         1   UNL        c5         6     0.22074       12.0110 ; qtot    0.538
         7            n6bf         1   UNL        n6         7    -0.62219       14.0070 ; qtot   -0.085
         8            c7bf         1   UNL        c7         8     0.29317       12.0110 ; qtot    0.209
         9            c8bf         1   UNL        c8         9     0.29405       12.0110 ; qtot    0.503
        10            n9bf         1   UNL        n9        10    -0.62285       14.0070 ; qtot   -0.120
        11           c10bf         1   UNL       c10        11    -0.02835       12.0110 ; qtot   -0.149
        12           c11bf         1   UNL       c11        12    -0.08538       12.0110 ; qtot   -0.234
        13           c12bf         1   UNL       c12        13    -0.11792       12.0110 ; qtot   -0.352
        14           c13bf         1   UNL       c13        14    -0.07311       12.0110 ; qtot   -0.425
        15           c14bf         1   UNL       c14        15    -0.02055       12.0110 ; qtot   -0.446
        16           c15bf         1   UNL       c15        16    -0.06154       12.0110 ; qtot   -0.507
        17           n16bf         1   UNL       n16        17    -0.96404       14.0070 ; qtot   -1.471
        18           c17bf         1   UNL       c17        18     0.35358       12.0110 ; qtot   -1.118
        19           c18bf         1   UNL       c18        19     0.27846       12.0110 ; qtot   -0.839
        20           n19bf         1   UNL       n19        20    -0.60355       14.0070 ; qtot   -1.443
        21           c20bf         1   UNL       c20        21     0.28639       12.0110 ; qtot   -1.156
        22           c21bf         1   UNL       c21        22    -0.03902       12.0110 ; qtot   -1.195
        23           c22bf         1   UNL       c22        23    -0.27733       12.0110 ; qtot   -1.473
        24           s23bf         1   UNL       s23        24     0.99436       32.0670 ; qtot   -0.478
        25           o24bf         1   UNL       o24        25    -0.51400       15.9990 ; qtot   -0.992
        26           o25bf         1   UNL       o25        26    -0.51400       15.9990 ; qtot   -1.506
        27           c26bf         1   UNL       c26        27    -0.29607       12.0110 ; qtot   -1.802
        28          br27bf         1   UNL      br27        28    -0.10236       79.9040 ; qtot   -1.905
        29           h28bf         1   UNL       h28        29     0.14328        1.0080 ; qtot   -1.761
        30           h29bf         1   UNL       h29        30     0.12777        1.0080 ; qtot   -1.634
        31           h30bf         1   UNL       h30        31     0.03158        1.0080 ; qtot   -1.602
        32           h31bf         1   UNL       h31        32     0.03160        1.0080 ; qtot   -1.570
        33           h32bf         1   UNL       h32        33     0.12518        1.0080 ; qtot   -1.445
        34           h33bf         1   UNL       h33        34     0.12142        1.0080 ; qtot   -1.324
        35           h34bf         1   UNL       h34        35     0.13477        1.0080 ; qtot   -1.189
        36           h35bf         1   UNL       h35        36     0.13960        1.0080 ; qtot   -1.049
        37           h36bf         1   UNL       h36        37     0.51181        1.0080 ; qtot   -0.538
        38           h37bf         1   UNL       h37        38     0.03589        1.0080 ; qtot   -0.502
        39           h38bf         1   UNL       h38        39     0.03700        1.0080 ; qtot   -0.465
        40           h39bf         1   UNL       h39        40     0.15079        1.0080 ; qtot   -0.314
        41           h40bf         1   UNL       h40        41     0.10467        1.0080 ; qtot   -0.209
        42           h41bf         1   UNL       h41        42     0.10467        1.0080 ; qtot   -0.105
        43           h42bf         1   UNL       h42        43     0.10463        1.0080 ; qtot   -0.000

[ bonds ]
;       ai        aj funct               r               k
         1         4     1        0.138555   332574.984961
         1         6     1        0.143376   238887.042871
         1        11     1        0.148421   214643.949902
         2         3     1        0.138622   325678.790723
         2         5     1        0.141521   284459.010498
         2        29     1        0.108434   324306.120020
         3         4     1        0.142352   251288.271777
         3        17     1        0.140593   260287.089453
         4        30     1        0.108425   321462.077686
         5         6     1        0.143377   223875.308496
         5        10     1        0.136675   270922.835840
         6         7     1        0.136376   268524.084082
         7         8     1        0.131881   374103.202393
         8         9     1        0.142216   238192.510107
         8        31     1        0.108820   315940.162988
         9        10     1        0.131846   380187.239941
         9        32     1        0.108836   315483.763770
        11        12     1        0.140534   284247.231250
        11        16     1        0.140521   283505.199463
        12        13     1        0.139617   314726.460791
        12        33     1        0.108481   322771.748340
        13        14     1        0.139858   305113.858691
        13        34     1        0.108599   320956.264160
        14        15     1        0.139616   297110.324316
        14        35     1        0.108446   326137.999023
        15        16     1        0.139329   308664.946973
        15        28     1        0.191865   120377.873193
        16        36     1        0.108390   325863.066504
        17        18     1        0.138908   287909.073975
        17        37     1        0.101485   406811.259766
        18        19     1        0.141520   257222.712939
        18        23     1        0.141314   265581.391895
        19        20     1        0.133244   341315.111719
        19        38     1        0.108642   319937.154736
        20        21     1        0.133977   313656.583594
        21        22     1        0.139506   299656.731641
        21        39     1        0.108702   319547.177539
        22        23     1        0.139402   313134.068799
        22        40     1        0.108446   326160.114160
        23        24     1        0.180715   124483.627490
        24        25     1        0.147464   495020.215039
        24        26     1        0.147464   495020.215039
        24        27     1        0.180772   140787.539600
        27        41     1        0.109028   319230.108789
        27        42     1        0.109028   319230.108789
        27        43     1        0.109028   319230.108789

[ angles ]
;       ai        aj        ak funct           theta             cth
         1         4         3     1      122.318260      710.971448
         1         4        30     1      118.762856      414.829816
         1         6         5     1      118.849648      690.636758
         1         6         7     1      120.388779      430.198304
         1        11        12     1      120.727341      468.508054
         1        11        16     1      120.287086      457.382302
         2         3         4     1      119.328163      642.905028
         2         3        17     1      121.254745      492.361087
         2         5         6     1      120.561111      663.910960
         2         5        10     1      118.281189      431.308051
         3         2         5     1      120.257889      537.525444
         3         2        29     1      121.917053      423.581575
         3         4        30     1      118.503174      446.851340
         3        17        18     1      126.297546      421.362209
         3        17        37     1      115.426346      433.799388
         4         1         6     1      118.454575      532.240922
         4         1        11     1      119.067368      475.103364
         4         3        17     1      119.251770      541.101022
         5         2        29     1      117.843239      439.647833
         5         6         7     1      120.225365      782.040649
         5        10         9     1      116.661819      559.934704
         6         1        11     1      122.460693      451.214994
         6         5        10     1      121.313904      706.695897
         6         7         8     1      117.602097      602.197982
         7         8         9     1      122.256546      732.863901
         7         8        31     1      117.339157      362.478902
         8         9        10     1      122.299545      738.442163
         8         9        32     1      120.145851      429.987368
         9         8        31     1      120.142014      430.475797
        10         9        32     1      117.380966      342.428057
        11        12        13     1      120.580338      711.748414
        11        12        33     1      119.420334      406.823103
        11        16        15     1      119.690125      648.054203
        11        16        36     1      120.102806      393.458735
        12        11        16     1      118.886917      702.068892
        12        13        14     1      120.705101      716.469524
        12        13        34     1      119.804810      427.723599
        13        12        33     1      120.049377      415.287856
        13        14        15     1      118.407494      606.193901
        13        14        35     1      121.013138      416.195860
        14        13        34     1      119.484055      433.901728
        14        15        16     1      121.696266      664.114619
        14        15        28     1      119.274963      316.237804
        15        14        35     1      120.632935      402.112368
        15        16        36     1      120.258644      373.895139
        16        15        28     1      119.068832      333.770275
        17        18        19     1      122.505417      578.362793
        17        18        23     1      121.389572      543.101025
        18        17        37     1      114.551170      450.222622
        18        19        20     1      124.232620      770.104221
        18        19        38     1      119.153419      415.430290
        18        23        22     1      120.275772      760.585008
        18        23        24     1      121.663406      744.979280
        19        18        23     1      115.672928      673.644813
        19        20        21     1      118.320412      693.264846
        20        19        38     1      116.504784      340.209553
        20        21        22     1      122.754715      730.070077
        20        21        39     1      116.530663      356.374383
        21        22        23     1      118.684891      679.603961
        21        22        40     1      121.212906      424.346476
        22        21        39     1      120.538696      415.343272
        22        23        24     1      117.699501      539.880923
        23        22        40     1      120.270653      343.599700
        23        24        25     1      107.938034      640.902280
        23        24        26     1      107.938034      640.902216
        23        24        27     1      103.486069      654.077513
        24        27        41     1      107.672256      569.998368
        24        27        42     1      107.672256      569.998368
        24        27        43     1      107.672256      569.998368
        25        24        26     1      120.015259      741.792249
        25        24        27     1      107.539932      732.341412
        26        24        27     1      107.539932      732.341412
        41        27        42     1      111.147987      344.776258
        41        27        43     1      111.147987      344.776258
        42        27        43     1      111.147987      344.776258

[ dihedrals ] ; propers for gromacs 4.5 or higher, use funct 9
;       ai        aj        ak        al funct           phase               k        pn
         1         4         3         2     9        0.000000        0.172081         1
         1         4         3         2     9      180.000000       14.181536         2
         1         4         3         2     9        0.000000       -0.839699         3
         1         4         3         2     9      180.000000       -0.237165         4
         1         4         3        17     9        0.000000        0.190971         1
         1         4         3        17     9      180.000000       15.483033         2
         1         4         3        17     9        0.000000        0.081624         3
         1         4         3        17     9      180.000000       -0.403305         4
         1         6         5         2     9        0.000000        0.101297         1
         1         6         5         2     9      180.000000       11.580673         2
         1         6         5         2     9        0.000000       -0.460937         3
         1         6         5         2     9      180.000000       -0.221399         4
         1         6         5        10     9        0.000000       -0.336203         1
         1         6         5        10     9      180.000000        9.929660         2
         1         6         5        10     9        0.000000        0.073639         3
         1         6         5        10     9      180.000000       -0.269277         4
         1         6         7         8     9        0.000000        0.510013         1
         1         6         7         8     9      180.000000       16.599571         2
         1         6         7         8     9        0.000000        0.386219         3
         1         6         7         8     9      180.000000       -0.362637         4
         1        11        12        13     9        0.000000        0.320673         1
         1        11        12        13     9      180.000000       15.527287         2
         1        11        12        13     9        0.000000        0.002589         3
         1        11        12        13     9      180.000000       -0.208347         4
         1        11        12        33     9        0.000000       -0.058237         1
         1        11        12        33     9      180.000000       13.094626         2
         1        11        12        33     9        0.000000       -0.183298         3
         1        11        12        33     9      180.000000        0.205620         4
         1        11        16        15     9        0.000000        0.200289         1
         1        11        16        15     9      180.000000       15.355365         2
         1        11        16        15     9        0.000000       -0.014423         3
         1        11        16        15     9      180.000000       -0.318942         4
         1        11        16        36     9        0.000000       -0.077668         1
         1        11        16        36     9      180.000000       13.065341         2
         1        11        16        36     9        0.000000       -0.203741         3
         1        11        16        36     9      180.000000        0.202143         4
         2         3         4        30     9        0.000000       -0.062430         1
         2         3         4        30     9      180.000000       11.927328         2
         2         3         4        30     9        0.000000       -0.431705         3
         2         3         4        30     9      180.000000        0.110490         4
         2         3        17        18     9        0.000000       -0.167871         1
         2         3        17        18     9      180.000000        3.526327         2
         2         3        17        18     9        0.000000       -0.356690         3
         2         3        17        18     9      180.000000        0.139573         4
         2         3        17        37     9        0.000000       -0.457731         1
         2         3        17        37     9      180.000000        3.512782         2
         2         3        17        37     9        0.000000       -0.099182         3
         2         3        17        37     9      180.000000        0.073474         4
         2         5         6         7     9        0.000000        0.337417         1
         2         5         6         7     9      180.000000       11.181904         2
         2         5         6         7     9        0.000000       -0.066177         3
         2         5         6         7     9      180.000000       -0.252704         4
         2         5        10         9     9        0.000000       -0.023334         1
         2         5        10         9     9      180.000000       18.424194         2
         2         5        10         9     9        0.000000        0.154347         3
         2         5        10         9     9      180.000000       -0.275637         4
         3         2         5         6     9        0.000000       -0.530340         1
         3         2         5         6     9      180.000000       13.660331         2
         3         2         5         6     9        0.000000       -0.959970         3
         3         2         5         6     9      180.000000       -0.183422         4
         3         2         5        10     9        0.000000       -0.306896         1
         3         2         5        10     9      180.000000       14.010283         2
         3         2         5        10     9        0.000000       -0.425194         3
         3         2         5        10     9      180.000000       -0.392180         4
         3         4         1         6     9        0.000000       -0.215507         1
         3         4         1         6     9      180.000000       19.581820         2
         3         4         1         6     9        0.000000       -1.578438         3
         3         4         1         6     9      180.000000       -0.314455         4
         3         4         1        11     9        0.000000        0.374281         1
         3         4         1        11     9      180.000000       19.296047         2
         3         4         1        11     9        0.000000        0.072948         3
         3         4         1        11     9      180.000000       -0.788370         4
         3        17        18        19     9        0.000000        1.786047         1
         3        17        18        19     9      180.000000        3.116500         2
         3        17        18        19     9        0.000000       -0.286577         3
         3        17        18        19     9      180.000000        0.145436         4
         3        17        18        23     9        0.000000       -1.816147         1
         3        17        18        23     9      180.000000        4.619861         2
         3        17        18        23     9        0.000000       -0.590149         3
         3        17        18        23     9      180.000000        0.059912         4
         4         1         6         5     9        0.000000       -0.416401         1
         4         1         6         5     9      180.000000       10.644008         2
         4         1         6         5     9        0.000000       -0.862712         3
         4         1         6         5     9      180.000000        0.041127         4
         4         1         6         7     9        0.000000        0.029729         1
         4         1         6         7     9      180.000000        9.670909         2
         4         1         6         7     9        0.000000       -0.275591         3
         4         1         6         7     9      180.000000       -0.082347         4
         4         1        11        12     9        0.000000       -0.284953         1
         4         1        11        12     9      180.000000        4.242299         2
         4         1        11        12     9        0.000000        0.099845         3
         4         1        11        12     9      180.000000        0.580400         4
         4         1        11        16     9        0.000000       -0.213470         1
         4         1        11        16     9      180.000000        4.273815         2
         4         1        11        16     9        0.000000        0.097892         3
         4         1        11        16     9      180.000000        0.588112         4
         4         3         2         5     9        0.000000       -0.167718         1
         4         3         2         5     9      180.000000       17.290347         2
         4         3         2         5     9        0.000000       -1.146064         3
         4         3         2         5     9      180.000000       -0.418463         4
         4         3         2        29     9        0.000000        0.061252         1
         4         3         2        29     9      180.000000       13.337189         2
         4         3         2        29     9        0.000000       -0.359259         3
         4         3         2        29     9      180.000000        0.130980         4
         4         3        17        18     9        0.000000       -0.216344         1
         4         3        17        18     9      180.000000        3.383541         2
         4         3        17        18     9        0.000000        0.029880         3
         4         3        17        18     9      180.000000        0.116824         4
         4         3        17        37     9        0.000000       -0.412558         1
         4         3        17        37     9      180.000000        3.316538         2
         4         3        17        37     9        0.000000        0.047273         3
         4         3        17        37     9      180.000000        0.093660         4
         5         2         3        17     9        0.000000        0.246511         1
         5         2         3        17     9      180.000000       19.522853         2
         5         2         3        17     9        0.000000        0.055608         3
         5         2         3        17     9      180.000000       -0.772829         4
         5         6         1        11     9        0.000000        0.089645         1
         5         6         1        11     9      180.000000       12.583104         2
         5         6         1        11     9        0.000000        0.008404         3
         5         6         1        11     9      180.000000       -0.425831         4
         5         6         7         8     9        0.000000        0.172539         1
         5         6         7         8     9      180.000000       16.817876         2
         5         6         7         8     9        0.000000       -0.048042         3
         5         6         7         8     9      180.000000       -0.239301         4
         5        10         9         8     9        0.000000       -0.161990         1
         5        10         9         8     9      180.000000       25.805864         2
         5        10         9         8     9        0.000000       -0.989158         3
         5        10         9         8     9      180.000000       -0.201960         4
         5        10         9        32     9        0.000000        0.808513         1
         5        10         9        32     9      180.000000       23.535886         2
         5        10         9        32     9        0.000000        0.064004         3
         5        10         9        32     9      180.000000       -0.475717         4
         6         1         4        30     9        0.000000        0.170896         1
         6         1         4        30     9      180.000000       15.875010         2
         6         1         4        30     9        0.000000       -0.338549         3
         6         1         4        30     9      180.000000        0.164201         4
         6         1        11        12     9        0.000000       -0.110784         1
         6         1        11        12     9      180.000000        3.893005         2
         6         1        11        12     9        0.000000       -0.191922         3
         6         1        11        12     9      180.000000        0.737795         4
         6         1        11        16     9        0.000000       -0.182596         1
         6         1        11        16     9      180.000000        3.944829         2
         6         1        11        16     9        0.000000       -0.225940         3
         6         1        11        16     9      180.000000        0.740136         4
         6         5         2        29     9        0.000000       -0.168579         1
         6         5         2        29     9      180.000000       10.564597         2
         6         5         2        29     9        0.000000       -0.261929         3
         6         5         2        29     9      180.000000       -0.006921         4
         6         5        10         9     9        0.000000       -0.113243         1
         6         5        10         9     9      180.000000       16.457234         2
         6         5        10         9     9        0.000000        0.035209         3
         6         5        10         9     9      180.000000       -0.227308         4
         6         7         8         9     9        0.000000        0.104497         1
         6         7         8         9     9      180.000000       25.053764         2
         6         7         8         9     9        0.000000       -0.955082         3
         6         7         8         9     9      180.000000       -0.160012         4
         6         7         8        31     9        0.000000        0.726539         1
         6         7         8        31     9      180.000000       22.911942         2
         6         7         8        31     9        0.000000        0.102107         3
         6         7         8        31     9      180.000000       -0.545266         4
         7         6         1        11     9        0.000000       -0.438099         1
         7         6         1        11     9      180.000000       12.340111         2
         7         6         1        11     9        0.000000       -0.118223         3
         7         6         1        11     9      180.000000       -0.452405         4
         7         6         5        10     9        0.000000        0.152873         1
         7         6         5        10     9      180.000000       11.072213         2
         7         6         5        10     9        0.000000        0.155830         3
         7         6         5        10     9      180.000000       -0.400050         4
         7         8         9        10     9        0.000000       -0.713203         1
         7         8         9        10     9      180.000000       11.742392         2
         7         8         9        10     9        0.000000       -0.552181         3
         7         8         9        10     9      180.000000       -0.521535         4
         7         8         9        32     9        0.000000       -0.026031         1
         7         8         9        32     9      180.000000        9.508286         2
         7         8         9        32     9        0.000000       -0.255749         3
         7         8         9        32     9      180.000000       -0.134502         4
        10         5         2        29     9        0.000000        0.016940         1
        10         5         2        29     9      180.000000       11.980067         2
        10         5         2        29     9        0.000000       -0.349905         3
        10         5         2        29     9      180.000000        0.012863         4
        10         9         8        31     9        0.000000       -0.199022         1
        10         9         8        31     9      180.000000        9.267615         2
        10         9         8        31     9        0.000000       -0.318099         3
        10         9         8        31     9      180.000000       -0.090079         4
        11         1         4        30     9        0.000000       -0.007743         1
        11         1         4        30     9      180.000000       14.983149         2
        11         1         4        30     9        0.000000       -0.150986         3
        11         1         4        30     9      180.000000        0.078388         4
        11        12        13        14     9        0.000000       -0.044832         1
        11        12        13        14     9      180.000000       19.179195         2
        11        12        13        14     9        0.000000       -1.509685         3
        11        12        13        14     9      180.000000       -0.475664         4
        11        12        13        34     9        0.000000       -0.020699         1
        11        12        13        34     9      180.000000       14.937461         2
        11        12        13        34     9        0.000000       -0.592699         3
        11        12        13        34     9      180.000000        0.034859         4
        11        16        15        14     9        0.000000       -0.085648         1
        11        16        15        14     9      180.000000       17.931181         2
        11        16        15        14     9        0.000000       -1.227721         3
        11        16        15        14     9      180.000000       -0.410044         4
        11        16        15        28     9        0.000000        0.443111         1
        11        16        15        28     9      180.000000       17.838718         2
        11        16        15        28     9        0.000000        0.370252         3
        11        16        15        28     9      180.000000       -0.612576         4
        12        11        16        15     9        0.000000       -0.141118         1
        12        11        16        15     9      180.000000       18.725127         2
        12        11        16        15     9        0.000000       -1.447416         3
        12        11        16        15     9      180.000000       -0.472873         4
        12        11        16        36     9        0.000000        0.064933         1
        12        11        16        36     9      180.000000       13.941771         2
        12        11        16        36     9        0.000000       -0.490859         3
        12        11        16        36     9      180.000000        0.134335         4
        12        13        14        15     9        0.000000       -0.004276         1
        12        13        14        15     9      180.000000       18.544215         2
        12        13        14        15     9        0.000000       -1.502140         3
        12        13        14        15     9      180.000000       -0.431664         4
        12        13        14        35     9        0.000000        0.037766         1
        12        13        14        35     9      180.000000       14.096992         2
        12        13        14        35     9        0.000000       -0.736568         3
        12        13        14        35     9      180.000000        0.168348         4
        13        12        11        16     9        0.000000       -0.065058         1
        13        12        11        16     9      180.000000       18.569572         2
        13        12        11        16     9        0.000000       -1.228547         3
        13        12        11        16     9      180.000000       -0.374725         4
        13        14        15        16     9        0.000000       -0.041617         1
        13        14        15        16     9      180.000000       17.931965         2
        13        14        15        16     9        0.000000       -1.228858         3
        13        14        15        16     9      180.000000       -0.432119         4
        13        14        15        28     9        0.000000        0.447993         1
        13        14        15        28     9      180.000000       18.047708         2
        13        14        15        28     9        0.000000        0.368764         3
        13        14        15        28     9      180.000000       -0.510343         4
        14        13        12        33     9        0.000000        0.090131         1
        14        13        12        33     9      180.000000       15.031858         2
        14        13        12        33     9        0.000000       -0.689996         3
        14        13        12        33     9      180.000000        0.063131         4
        14        15        16        36     9        0.000000        0.062479         1
        14        15        16        36     9      180.000000       13.908108         2
        14        15        16        36     9        0.000000       -0.574207         3
        14        15        16        36     9      180.000000        0.088459         4
        15        14        13        34     9        0.000000        0.004808         1
        15        14        13        34     9      180.000000       14.475537         2
        15        14        13        34     9        0.000000       -0.572231         3
        15        14        13        34     9      180.000000        0.090291         4
        16        11        12        33     9        0.000000        0.049614         1
        16        11        12        33     9      180.000000       14.215511         2
        16        11        12        33     9        0.000000       -0.479709         3
        16        11        12        33     9      180.000000        0.085926         4
        16        15        14        35     9        0.000000        0.017068         1
        16        15        14        35     9      180.000000       13.572075         2
        16        15        14        35     9        0.000000       -0.607170         3
        16        15        14        35     9      180.000000        0.098731         4
        17         3         2        29     9        0.000000       -0.006423         1
        17         3         2        29     9      180.000000       15.238159         2
        17         3         2        29     9        0.000000       -0.072526         3
        17         3         2        29     9      180.000000        0.161232         4
        17         3         4        30     9        0.000000       -0.052764         1
        17         3         4        30     9      180.000000       14.029721         2
        17         3         4        30     9        0.000000       -0.046524         3
        17         3         4        30     9      180.000000        0.147453         4
        17        18        19        20     9        0.000000        0.186749         1
        17        18        19        20     9      180.000000       16.683917         2
        17        18        19        20     9        0.000000        0.179116         3
        17        18        19        20     9      180.000000       -0.684725         4
        17        18        19        38     9        0.000000       -0.299543         1
        17        18        19        38     9      180.000000       14.371219         2
        17        18        19        38     9        0.000000       -0.253273         3
        17        18        19        38     9      180.000000        0.145399         4
        17        18        23        22     9        0.000000        0.142200         1
        17        18        23        22     9      180.000000       15.897986         2
        17        18        23        22     9        0.000000        0.030266         3
        17        18        23        22     9      180.000000       -0.460852         4
        17        18        23        24     9        0.000000       -0.927876         1
        17        18        23        24     9      180.000000       13.516792         2
        17        18        23        24     9        0.000000       -0.073923         3
        17        18        23        24     9      180.000000       -0.622706         4
        18        19        20        21     9        0.000000        0.319722         1
        18        19        20        21     9      180.000000       22.949103         2
        18        19        20        21     9        0.000000       -0.741217         3
        18        19        20        21     9      180.000000        0.175923         4
        18        23        22        21     9        0.000000       -0.049560         1
        18        23        22        21     9      180.000000       18.886873         2
        18        23        22        21     9        0.000000       -2.021566         3
        18        23        22        21     9      180.000000       -0.405198         4
        18        23        22        40     9        0.000000        0.229106         1
        18        23        22        40     9      180.000000       14.976780         2
        18        23        22        40     9        0.000000       -0.507226         3
        18        23        22        40     9      180.000000        0.085320         4
        18        23        24        25     9        0.000000       -1.334284         1
        18        23        24        25     9      180.000000        0.814377         2
        18        23        24        25     9        0.000000        0.785313         3
        18        23        24        25     9      180.000000       -0.187784         4
        18        23        24        26     9        0.000000       -1.334284         1
        18        23        24        26     9      180.000000        0.814377         2
        18        23        24        26     9        0.000000        0.785313         3
        18        23        24        26     9      180.000000       -0.187784         4
        18        23        24        27     9        0.000000        3.729086         1
        18        23        24        27     9      180.000000       -2.195929         2
        18        23        24        27     9        0.000000        0.799429         3
        18        23        24        27     9      180.000000        0.054293         4
        19        18        17        37     9        0.000000       -1.272590         1
        19        18        17        37     9      180.000000        2.989698         2
        19        18        17        37     9        0.000000       -0.423807         3
        19        18        17        37     9      180.000000        0.040258         4
        19        18        23        22     9        0.000000       -0.037262         1
        19        18        23        22     9      180.000000       14.380144         2
        19        18        23        22     9        0.000000       -0.900344         3
        19        18        23        22     9      180.000000       -0.221952         4
        19        18        23        24     9        0.000000        0.366400         1
        19        18        23        24     9      180.000000       11.025740         2
        19        18        23        24     9        0.000000        0.150288         3
        19        18        23        24     9      180.000000       -0.363523         4
        19        20        21        22     9        0.000000        0.177563         1
        19        20        21        22     9      180.000000       22.523862         2
        19        20        21        22     9        0.000000       -0.901752         3
        19        20        21        22     9      180.000000       -0.193725         4
        19        20        21        39     9        0.000000        0.988694         1
        19        20        21        39     9      180.000000       20.417146         2
        19        20        21        39     9        0.000000        0.253449         3
        19        20        21        39     9      180.000000       -0.430136         4
        20        19        18        23     9        0.000000       -0.510166         1
        20        19        18        23     9      180.000000       14.375531         2
        20        19        18        23     9        0.000000       -0.595358         3
        20        19        18        23     9      180.000000       -0.489937         4
        20        21        22        23     9        0.000000       -0.220827         1
        20        21        22        23     9      180.000000       18.549630         2
        20        21        22        23     9        0.000000       -1.222990         3
        20        21        22        23     9      180.000000       -0.581963         4
        20        21        22        40     9        0.000000        0.066372         1
        20        21        22        40     9      180.000000       14.573595         2
        20        21        22        40     9        0.000000       -0.318036         3
        20        21        22        40     9      180.000000       -0.017204         4
        21        20        19        38     9        0.000000        1.115355         1
        21        20        19        38     9      180.000000       20.962220         2
        21        20        19        38     9        0.000000        0.247396         3
        21        20        19        38     9      180.000000       -0.016300         4
        21        22        23        24     9        0.000000        0.192524         1
        21        22        23        24     9      180.000000       13.995354         2
        21        22        23        24     9        0.000000        0.189776         3
        21        22        23        24     9      180.000000       -0.443900         4
        22        23        24        25     9        0.000000       -0.090526         1
        22        23        24        25     9      180.000000        0.655864         2
        22        23        24        25     9        0.000000       -0.321290         3
        22        23        24        25     9      180.000000       -0.045697         4
        22        23        24        26     9        0.000000       -0.090526         1
        22        23        24        26     9      180.000000        0.655864         2
        22        23        24        26     9        0.000000       -0.321290         3
        22        23        24        26     9      180.000000       -0.045697         4
        22        23        24        27     9        0.000000        0.119865         1
        22        23        24        27     9      180.000000       -0.559450         2
        22        23        24        27     9        0.000000       -0.551232         3
        22        23        24        27     9      180.000000        0.255504         4
        23        18        17        37     9        0.000000        2.440458         1
        23        18        17        37     9      180.000000        3.205589         2
        23        18        17        37     9        0.000000       -0.727467         3
        23        18        17        37     9      180.000000        0.027702         4
        23        18        19        38     9        0.000000        0.058995         1
        23        18        19        38     9      180.000000       12.296401         2
        23        18        19        38     9        0.000000       -0.329284         3
        23        18        19        38     9      180.000000        0.069067         4
        23        22        21        39     9        0.000000        0.008007         1
        23        22        21        39     9      180.000000       14.871302         2
        23        22        21        39     9        0.000000       -0.365301         3
        23        22        21        39     9      180.000000       -0.122425         4
        23        24        27        41     9        0.000000        0.134670         1
        23        24        27        41     9      180.000000       -0.180389         2
        23        24        27        41     9        0.000000        0.326690         3
        23        24        27        41     9      180.000000       -0.016353         4
        23        24        27        42     9        0.000000        0.134670         1
        23        24        27        42     9      180.000000       -0.180389         2
        23        24        27        42     9        0.000000        0.326690         3
        23        24        27        42     9      180.000000       -0.016353         4
        23        24        27        43     9        0.000000        0.134670         1
        23        24        27        43     9      180.000000       -0.180389         2
        23        24        27        43     9        0.000000        0.326690         3
        23        24        27        43     9      180.000000       -0.016353         4
        24        23        22        40     9        0.000000       -0.032266         1
        24        23        22        40     9      180.000000       12.082713         2
        24        23        22        40     9        0.000000       -0.269977         3
        24        23        22        40     9      180.000000        0.014566         4
        25        24        27        41     9        0.000000       -0.020339         1
        25        24        27        41     9      180.000000       -0.042566         2
        25        24        27        41     9        0.000000        0.357266         3
        25        24        27        41     9      180.000000        0.004050         4
        25        24        27        42     9        0.000000       -0.020339         1
        25        24        27        42     9      180.000000       -0.042566         2
        25        24        27        42     9        0.000000        0.357266         3
        25        24        27        42     9      180.000000        0.004050         4
        25        24        27        43     9        0.000000       -0.020339         1
        25        24        27        43     9      180.000000       -0.042566         2
        25        24        27        43     9        0.000000        0.357266         3
        25        24        27        43     9      180.000000        0.004050         4
        26        24        27        41     9        0.000000       -0.020339         1
        26        24        27        41     9      180.000000       -0.042566         2
        26        24        27        41     9        0.000000        0.357266         3
        26        24        27        41     9      180.000000        0.004050         4
        26        24        27        42     9        0.000000       -0.020339         1
        26        24        27        42     9      180.000000       -0.042566         2
        26        24        27        42     9        0.000000        0.357266         3
        26        24        27        42     9      180.000000        0.004050         4
        26        24        27        43     9        0.000000       -0.020339         1
        26        24        27        43     9      180.000000       -0.042566         2
        26        24        27        43     9        0.000000        0.357266         3
        26        24        27        43     9      180.000000        0.004050         4
        28        15        14        35     9        0.000000        0.128412         1
        28        15        14        35     9      180.000000       12.788575         2
        28        15        14        35     9        0.000000       -0.079105         3
        28        15        14        35     9      180.000000        0.210017         4
        28        15        16        36     9        0.000000        0.071302         1
        28        15        16        36     9      180.000000       13.225052         2
        28        15        16        36     9        0.000000       -0.077372         3
        28        15        16        36     9      180.000000        0.166145         4
        31         8         9        32     9        0.000000       -0.431715         1
        31         8         9        32     9      180.000000        6.869070         2
        31         8         9        32     9        0.000000       -0.569257         3
        31         8         9        32     9      180.000000        0.186659         4
        33        12        13        34     9        0.000000       -0.161814         1
        33        12        13        34     9      180.000000       12.275800         2
        33        12        13        34     9        0.000000       -0.739023         3
        33        12        13        34     9      180.000000        0.286886         4
        34        13        14        35     9        0.000000       -0.146643         1
        34        13        14        35     9      180.000000       11.712290         2
        34        13        14        35     9        0.000000       -0.635651         3
        34        13        14        35     9      180.000000        0.275265         4
        39        21        22        40     9        0.000000       -0.049751         1
        39        21        22        40     9      180.000000       11.944933         2
        39        21        22        40     9        0.000000       -0.710210         3
        39        21        22        40     9      180.000000        0.205813         4

[ dihedrals ] ; impropers
;       ai        aj        ak        al funct           phase               k        pn
         1         4         6        11     4      180.000000        0.388202         2
         1         6        11         4     4      180.000000        0.388202         2
         1        11         4         6     4      180.000000        0.388202         2
         8         7         9        31     4      180.000000        4.409855         2
         8         9        31         7     4      180.000000        4.409855         2
         8        31         7         9     4      180.000000        4.409855         2
         9         8        10        32     4      180.000000        4.162411         2
         9        10        32         8     4      180.000000        4.162411         2
         9        32         8        10     4      180.000000        4.162411         2
        12        11        13        33     4      180.000000        0.220964         2
        12        13        33        11     4      180.000000        0.220964         2
        12        33        11        13     4      180.000000        0.220964         2
        13        12        14        34     4      180.000000        1.863208         2
        13        14        34        12     4      180.000000        1.863208         2
        13        34        12        14     4      180.000000        1.863208         2
        14        13        15        35     4      180.000000        0.174225         2
        14        15        35        13     4      180.000000        0.174225         2
        14        35        13        15     4      180.000000        0.174225         2
        16        11        15        36     4      180.000000        0.264022         2
        16        15        36        11     4      180.000000        0.264022         2
        16        36        11        15     4      180.000000        0.264022         2
        19        18        20        38     4      180.000000        3.547250         2
        19        20        38        18     4      180.000000        3.547250         2
        19        38        18        20     4      180.000000        3.547250         2
        21        20        22        39     4      180.000000        3.347116         2
        21        22        39        20     4      180.000000        3.347116         2
        21        39        20        22     4      180.000000        3.347116         2

[ pairs ]
;       ai        aj funct
         1         2     1
         1         8     1
         1        10     1
         1        13     1
         1        15     1
         1        17     1
         1        33     1
         1        36     1
         2         7     1
         2         9     1
         2        18     1
         2        30     1
         2        37     1
         3         6     1
         3        10     1
         3        11     1
         3        19     1
         3        23     1
         4         5     1
         4         7     1
         4        12     1
         4        16     1
         4        18     1
         4        29     1
         4        37     1
         5         8     1
         5        11     1
         5        17     1
         5        32     1
         6         9     1
         6        12     1
         6        16     1
         6        29     1
         6        30     1
         6        31     1
         7        10     1
         7        11     1
         7        32     1
        10        29     1
        10        31     1
        11        14     1
        11        28     1
        11        30     1
        11        34     1
        12        15     1
        12        35     1
        12        36     1
        13        16     1
        13        28     1
        14        33     1
        14        36     1
        15        34     1
        16        33     1
        16        35     1
        17        20     1
        17        22     1
        17        24     1
        17        29     1
        17        30     1
        17        38     1
        18        21     1
        18        25     1
        18        26     1
        18        27     1
        18        40     1
        19        22     1
        19        24     1
        19        37     1
        19        39     1
        20        23     1
        20        40     1
        21        24     1
        21        38     1
        22        25     1
        22        26     1
        22        27     1
        23        37     1
        23        38     1
        23        39     1
        23        41     1
        23        42     1
        23        43     1
        24        40     1
        25        41     1
        25        42     1
        25        43     1
        26        41     1
        26        42     1
        26        43     1
        28        35     1
        28        36     1
        31        32     1
        33        34     1
        34        35     1
        39        40     1
