; ITP file created by ByteFF-ML, 2026-02-21 07:44:53.040270

[ atomtypes ]
;name           bonded.type        at.num        mass        charge   ptype           sigma         epsilon
 c0bf                                   6      0.0000       0.00000       A     3.31169e-01     4.10903e-01
 c1bf                                   6      0.0000       0.00000       A     3.31696e-01     4.13508e-01
 c2bf                                   6      0.0000       0.00000       A     3.31534e-01     4.11219e-01
 c3bf                                   6      0.0000       0.00000       A     3.31572e-01     4.14462e-01
 c4bf                                   6      0.0000       0.00000       A     3.31387e-01     4.12836e-01
 c5bf                                   6      0.0000       0.00000       A     3.31582e-01     4.11652e-01
 n6bf                                   7      0.0000       0.00000       A     3.38246e-01     3.93082e-01
 c7bf                                   6      0.0000       0.00000       A     3.31514e-01     4.13144e-01
 c8bf                                   6      0.0000       0.00000       A     3.31562e-01     4.13392e-01
 n9bf                                   7      0.0000       0.00000       A     3.38456e-01     3.92772e-01
 c10bf                                  6      0.0000       0.00000       A     3.31420e-01     4.10562e-01
 c11bf                                  6      0.0000       0.00000       A     3.31421e-01     4.13727e-01
 c12bf                                  6      0.0000       0.00000       A     3.31440e-01     4.12643e-01
 c13bf                                  6      0.0000       0.00000       A     3.31545e-01     4.13253e-01
 c14bf                                  6      0.0000       0.00000       A     3.31440e-01     4.12643e-01
 c15bf                                  6      0.0000       0.00000       A     3.31421e-01     4.13727e-01
 n16bf                                  7      0.0000       0.00000       A     3.27929e-01     6.45227e-01
 c17bf                                  6      0.0000       0.00000       A     3.31581e-01     4.12886e-01
 c18bf                                  6      0.0000       0.00000       A     3.31706e-01     4.11679e-01
 n19bf                                  7      0.0000       0.00000       A     3.38344e-01     3.92967e-01
 c20bf                                  6      0.0000       0.00000       A     3.31482e-01     4.12140e-01
 c21bf                                  6      0.0000       0.00000       A     3.31194e-01     4.12903e-01
 c22bf                                  6      0.0000       0.00000       A     3.31298e-01     4.15822e-01
 s23bf                                 16      0.0000       0.00000       A     4.05645e-01     2.55729e-01
 o24bf                                  8      0.0000       0.00000       A     3.04857e-01     6.11370e-01
 o25bf                                  8      0.0000       0.00000       A     3.04857e-01     6.11370e-01
 c26bf                                  6      0.0000       0.00000       A     3.39611e-01     4.49156e-01
 br27bf                                35      0.0000       0.00000       A     3.61369e-01     1.64592e+00
 h28bf                                  1      0.0000       0.00000       A     2.62399e-01     6.76733e-02
 h29bf                                  1      0.0000       0.00000       A     2.62381e-01     6.75967e-02
 h30bf                                  1      0.0000       0.00000       A     2.53506e-01     6.72855e-02
 h31bf                                  1      0.0000       0.00000       A     2.53506e-01     6.72855e-02
 h32bf                                  1      0.0000       0.00000       A     2.62439e-01     6.73062e-02
 h33bf                                  1      0.0000       0.00000       A     2.62554e-01     6.72041e-02
 h34bf                                  1      0.0000       0.00000       A     2.62554e-01     6.72041e-02
 h35bf                                  1      0.0000       0.00000       A     2.62439e-01     6.73062e-02
 h36bf                                  1      0.0000       0.00000       A     1.10952e-01     4.04428e-02
 h37bf                                  1      0.0000       0.00000       A     2.53583e-01     6.80915e-02
 h38bf                                  1      0.0000       0.00000       A     2.53644e-01     6.69998e-02
 h39bf                                  1      0.0000       0.00000       A     2.62744e-01     6.79622e-02
 h40bf                                  1      0.0000       0.00000       A     2.42021e-01     8.71597e-02
 h41bf                                  1      0.0000       0.00000       A     2.42021e-01     8.71597e-02
 h42bf                                  1      0.0000       0.00000       A     2.42021e-01     8.71597e-02

[ moleculetype ]
;name             nrexcl
 44                    3

[ atoms ]
;       nr            type      resi   res      atom      cgnr      charge          mass ; qtot
         1            c0bf         1   UNL        c0         1     0.02164       12.0110 ; qtot    0.022
         2            c1bf         1   UNL        c1         2    -0.14199       12.0110 ; qtot   -0.120
         3            c2bf         1   UNL        c2         3     0.30796       12.0110 ; qtot    0.188
         4            c3bf         1   UNL        c3         4    -0.12989       12.0110 ; qtot    0.058
         5            c4bf         1   UNL        c4         5     0.25875       12.0110 ; qtot    0.316
         6            c5bf         1   UNL        c5         6     0.21874       12.0110 ; qtot    0.535
         7            n6bf         1   UNL        n6         7    -0.62219       14.0070 ; qtot   -0.087
         8            c7bf         1   UNL        c7         8     0.29317       12.0110 ; qtot    0.206
         9            c8bf         1   UNL        c8         9     0.29405       12.0110 ; qtot    0.500
        10            n9bf         1   UNL        n9        10    -0.62285       14.0070 ; qtot   -0.123
        11           c10bf         1   UNL       c10        11    -0.02996       12.0110 ; qtot   -0.153
        12           c11bf         1   UNL       c11        12    -0.08713       12.0110 ; qtot   -0.240
        13           c12bf         1   UNL       c12        13    -0.09011       12.0110 ; qtot   -0.330
        14           c13bf         1   UNL       c13        14    -0.00608       12.0110 ; qtot   -0.336
        15           c14bf         1   UNL       c14        15    -0.09011       12.0110 ; qtot   -0.426
        16           c15bf         1   UNL       c15        16    -0.08713       12.0110 ; qtot   -0.513
        17           n16bf         1   UNL       n16        17    -0.96404       14.0070 ; qtot   -1.477
        18           c17bf         1   UNL       c17        18     0.35358       12.0110 ; qtot   -1.124
        19           c18bf         1   UNL       c18        19     0.27846       12.0110 ; qtot   -0.845
        20           n19bf         1   UNL       n19        20    -0.60355       14.0070 ; qtot   -1.449
        21           c20bf         1   UNL       c20        21     0.28639       12.0110 ; qtot   -1.162
        22           c21bf         1   UNL       c21        22    -0.03902       12.0110 ; qtot   -1.201
        23           c22bf         1   UNL       c22        23    -0.27733       12.0110 ; qtot   -1.479
        24           s23bf         1   UNL       s23        24     0.99436       32.0670 ; qtot   -0.484
        25           o24bf         1   UNL       o24        25    -0.51400       15.9990 ; qtot   -0.998
        26           o25bf         1   UNL       o25        26    -0.51400       15.9990 ; qtot   -1.512
        27           c26bf         1   UNL       c26        27    -0.29607       12.0110 ; qtot   -1.808
        28          br27bf         1   UNL      br27        28    -0.09636       79.9040 ; qtot   -1.905
        29           h28bf         1   UNL       h28        29     0.14328        1.0080 ; qtot   -1.761
        30           h29bf         1   UNL       h29        30     0.12777        1.0080 ; qtot   -1.634
        31           h30bf         1   UNL       h30        31     0.03158        1.0080 ; qtot   -1.602
        32           h31bf         1   UNL       h31        32     0.03160        1.0080 ; qtot   -1.570
        33           h32bf         1   UNL       h32        33     0.12672        1.0080 ; qtot   -1.444
        34           h33bf         1   UNL       h33        34     0.13378        1.0080 ; qtot   -1.310
        35           h34bf         1   UNL       h34        35     0.13378        1.0080 ; qtot   -1.176
        36           h35bf         1   UNL       h35        36     0.12672        1.0080 ; qtot   -1.049
        37           h36bf         1   UNL       h36        37     0.51181        1.0080 ; qtot   -0.538
        38           h37bf         1   UNL       h37        38     0.03589        1.0080 ; qtot   -0.502
        39           h38bf         1   UNL       h38        39     0.03700        1.0080 ; qtot   -0.465
        40           h39bf         1   UNL       h39        40     0.15079        1.0080 ; qtot   -0.314
        41           h40bf         1   UNL       h40        41     0.10467        1.0080 ; qtot   -0.209
        42           h41bf         1   UNL       h41        42     0.10467        1.0080 ; qtot   -0.105
        43           h42bf         1   UNL       h42        43     0.10465        1.0080 ; qtot   -0.000

[ bonds ]
;       ai        aj funct               r               k
         1         4     1        0.138589   331490.219629
         1         6     1        0.143424   237832.360254
         1        11     1        0.148371   214750.337500
         2         3     1        0.138622   325678.790723
         2         5     1        0.141521   284459.010498
         2        29     1        0.108434   324306.120020
         3         4     1        0.142352   251288.271777
         3        17     1        0.140593   260287.089453
         4        30     1        0.108425   321462.077686
         5         6     1        0.143377   223875.308496
         5        10     1        0.136675   270922.835840
         6         7     1        0.136376   268524.084082
         7         8     1        0.131881   374103.202393
         8         9     1        0.142216   238192.510107
         8        31     1        0.108820   315940.162988
         9        10     1        0.131846   380187.239941
         9        32     1        0.108836   315483.763770
        11        12     1        0.140524   284275.909424
        11        16     1        0.140524   284275.909424
        12        13     1        0.139617   315113.909814
        12        33     1        0.108489   322512.853125
        13        14     1        0.139628   301912.654346
        13        34     1        0.108466   324892.222217
        14        15     1        0.139628   301912.654346
        14        28     1        0.191398   123727.831201
        15        16     1        0.139617   315113.884277
        15        35     1        0.108466   324892.222217
        16        36     1        0.108489   322512.853125
        17        18     1        0.138908   287909.073975
        17        37     1        0.101485   406811.259766
        18        19     1        0.141520   257222.712939
        18        23     1        0.141314   265581.391895
        19        20     1        0.133244   341315.111719
        19        38     1        0.108642   319937.154736
        20        21     1        0.133977   313656.583594
        21        22     1        0.139506   299656.731641
        21        39     1        0.108702   319547.177539
        22        23     1        0.139402   313134.068799
        22        40     1        0.108446   326160.114160
        23        24     1        0.180715   124483.627490
        24        25     1        0.147464   495020.215039
        24        26     1        0.147464   495020.215039
        24        27     1        0.180772   140787.539600
        27        41     1        0.109028   319230.108789
        27        42     1        0.109028   319230.108789
        27        43     1        0.109028   319230.108789

[ angles ]
;       ai        aj        ak funct           theta             cth
         1         4         3     1      122.386673      712.308635
         1         4        30     1      118.693504      414.669826
         1         6         5     1      118.926697      694.181692
         1         6         7     1      120.356773      430.515124
         1        11        12     1      120.766907      467.778650
         1        11        16     1      120.766907      467.778650
         2         3         4     1      119.328163      642.905028
         2         3        17     1      121.254745      492.361087
         2         5         6     1      120.561111      663.910960
         2         5        10     1      118.281189      431.308051
         3         2         5     1      120.257889      537.525444
         3         2        29     1      121.917053      423.581575
         3         4        30     1      118.503174      446.851340
         3        17        18     1      126.297546      421.362209
         3        17        37     1      115.426346      433.799388
         4         1         6     1      118.333862      533.367364
         4         1        11     1      119.111107      477.109878
         4         3        17     1      119.251770      541.101022
         5         2        29     1      117.843239      439.647833
         5         6         7     1      120.225365      782.040649
         5        10         9     1      116.661819      559.934704
         6         1        11     1      122.538803      448.837010
         6         5        10     1      121.313904      706.695897
         6         7         8     1      117.602097      602.197982
         7         8         9     1      122.256546      732.863901
         7         8        31     1      117.339157      362.478902
         8         9        10     1      122.299545      738.442163
         8         9        32     1      120.145851      429.987368
         9         8        31     1      120.142014      430.475797
        10         9        32     1      117.380966      342.428057
        11        12        13     1      121.259750      698.194019
        11        12        33     1      119.519882      401.360555
        11        16        15     1      121.259750      698.194019
        11        16        36     1      119.519882      401.360555
        12        11        16     1      118.351624      711.555609
        12        13        14     1      119.110435      644.124489
        12        13        34     1      120.427597      414.718762
        13        12        33     1      119.360153      411.349811
        13        14        15     1      121.042587      631.887170
        13        14        28     1      119.480324      336.256185
        14        13        34     1      120.449844      408.506892
        14        15        16     1      119.110435      644.124489
        14        15        35     1      120.449844      408.506892
        15        14        28     1      119.480324      336.256185
        15        16        36     1      119.360153      411.349779
        16        15        35     1      120.427597      414.718762
        17        18        19     1      122.505417      578.362793
        17        18        23     1      121.389572      543.101025
        18        17        37     1      114.551170      450.222622
        18        19        20     1      124.232620      770.104221
        18        19        38     1      119.153419      415.430290
        18        23        22     1      120.275772      760.585008
        18        23        24     1      121.663406      744.979280
        19        18        23     1      115.672928      673.644813
        19        20        21     1      118.320412      693.264846
        20        19        38     1      116.504784      340.209553
        20        21        22     1      122.754715      730.070077
        20        21        39     1      116.530663      356.374383
        21        22        23     1      118.684891      679.603961
        21        22        40     1      121.212906      424.346476
        22        21        39     1      120.538696      415.343272
        22        23        24     1      117.699501      539.880923
        23        22        40     1      120.270653      343.599700
        23        24        25     1      107.938034      640.902280
        23        24        26     1      107.938034      640.902216
        23        24        27     1      103.486069      654.077513
        24        27        41     1      107.672256      569.998368
        24        27        42     1      107.672256      569.998368
        24        27        43     1      107.672256      569.998368
        25        24        26     1      120.015259      741.792249
        25        24        27     1      107.539932      732.341412
        26        24        27     1      107.539932      732.341412
        41        27        42     1      111.147987      344.776258
        41        27        43     1      111.147987      344.776258
        42        27        43     1      111.147987      344.776258

[ dihedrals ] ; propers for gromacs 4.5 or higher, use funct 9
;       ai        aj        ak        al funct           phase               k        pn
         1         4         3         2     9        0.000000        0.167106         1
         1         4         3         2     9      180.000000       14.145878         2
         1         4         3         2     9        0.000000       -0.836989         3
         1         4         3         2     9      180.000000       -0.237440         4
         1         4         3        17     9        0.000000        0.195819         1
         1         4         3        17     9      180.000000       15.487036         2
         1         4         3        17     9        0.000000        0.090487         3
         1         4         3        17     9      180.000000       -0.416735         4
         1         6         5         2     9        0.000000        0.136601         1
         1         6         5         2     9      180.000000       11.601559         2
         1         6         5         2     9        0.000000       -0.462910         3
         1         6         5         2     9      180.000000       -0.223606         4
         1         6         5        10     9        0.000000       -0.339666         1
         1         6         5        10     9      180.000000       10.121464         2
         1         6         5        10     9        0.000000        0.059834         3
         1         6         5        10     9      180.000000       -0.273739         4
         1         6         7         8     9        0.000000        0.547165         1
         1         6         7         8     9      180.000000       16.540471         2
         1         6         7         8     9        0.000000        0.381745         3
         1         6         7         8     9      180.000000       -0.359247         4
         1        11        12        13     9        0.000000        0.312783         1
         1        11        12        13     9      180.000000       15.310233         2
         1        11        12        13     9        0.000000       -0.067242         3
         1        11        12        13     9      180.000000       -0.216935         4
         1        11        12        33     9        0.000000       -0.056151         1
         1        11        12        33     9      180.000000       12.994832         2
         1        11        12        33     9        0.000000       -0.186456         3
         1        11        12        33     9      180.000000        0.218360         4
         1        11        16        15     9        0.000000        0.312783         1
         1        11        16        15     9      180.000000       15.310233         2
         1        11        16        15     9        0.000000       -0.067242         3
         1        11        16        15     9      180.000000       -0.216935         4
         1        11        16        36     9        0.000000       -0.056151         1
         1        11        16        36     9      180.000000       12.994832         2
         1        11        16        36     9        0.000000       -0.186456         3
         1        11        16        36     9      180.000000        0.218360         4
         2         3         4        30     9        0.000000       -0.062430         1
         2         3         4        30     9      180.000000       11.927328         2
         2         3         4        30     9        0.000000       -0.431705         3
         2         3         4        30     9      180.000000        0.110490         4
         2         3        17        18     9        0.000000       -0.167871         1
         2         3        17        18     9      180.000000        3.526327         2
         2         3        17        18     9        0.000000       -0.356690         3
         2         3        17        18     9      180.000000        0.139573         4
         2         3        17        37     9        0.000000       -0.457731         1
         2         3        17        37     9      180.000000        3.512782         2
         2         3        17        37     9        0.000000       -0.099182         3
         2         3        17        37     9      180.000000        0.073474         4
         2         5         6         7     9        0.000000        0.337417         1
         2         5         6         7     9      180.000000       11.181904         2
         2         5         6         7     9        0.000000       -0.066177         3
         2         5         6         7     9      180.000000       -0.252704         4
         2         5        10         9     9        0.000000       -0.023334         1
         2         5        10         9     9      180.000000       18.424194         2
         2         5        10         9     9        0.000000        0.154347         3
         2         5        10         9     9      180.000000       -0.275637         4
         3         2         5         6     9        0.000000       -0.530340         1
         3         2         5         6     9      180.000000       13.660331         2
         3         2         5         6     9        0.000000       -0.959970         3
         3         2         5         6     9      180.000000       -0.183422         4
         3         2         5        10     9        0.000000       -0.306896         1
         3         2         5        10     9      180.000000       14.010283         2
         3         2         5        10     9        0.000000       -0.425194         3
         3         2         5        10     9      180.000000       -0.392180         4
         3         4         1         6     9        0.000000       -0.208331         1
         3         4         1         6     9      180.000000       19.528674         2
         3         4         1         6     9        0.000000       -1.536774         3
         3         4         1         6     9      180.000000       -0.319841         4
         3         4         1        11     9        0.000000        0.376485         1
         3         4         1        11     9      180.000000       19.306931         2
         3         4         1        11     9        0.000000        0.080939         3
         3         4         1        11     9      180.000000       -0.781911         4
         3        17        18        19     9        0.000000        1.786047         1
         3        17        18        19     9      180.000000        3.116500         2
         3        17        18        19     9        0.000000       -0.286577         3
         3        17        18        19     9      180.000000        0.145436         4
         3        17        18        23     9        0.000000       -1.816147         1
         3        17        18        23     9      180.000000        4.619861         2
         3        17        18        23     9        0.000000       -0.590149         3
         3        17        18        23     9      180.000000        0.059912         4
         4         1         6         5     9        0.000000       -0.403050         1
         4         1         6         5     9      180.000000       10.576873         2
         4         1         6         5     9        0.000000       -0.856706         3
         4         1         6         5     9      180.000000        0.029522         4
         4         1         6         7     9        0.000000        0.098681         1
         4         1         6         7     9      180.000000        9.564116         2
         4         1         6         7     9        0.000000       -0.269460         3
         4         1         6         7     9      180.000000       -0.093680         4
         4         1        11        12     9        0.000000       -0.293189         1
         4         1        11        12     9      180.000000        4.335382         2
         4         1        11        12     9        0.000000        0.079210         3
         4         1        11        12     9      180.000000        0.565602         4
         4         1        11        16     9        0.000000       -0.293189         1
         4         1        11        16     9      180.000000        4.335382         2
         4         1        11        16     9        0.000000        0.079210         3
         4         1        11        16     9      180.000000        0.565602         4
         4         3         2         5     9        0.000000       -0.167718         1
         4         3         2         5     9      180.000000       17.290347         2
         4         3         2         5     9        0.000000       -1.146064         3
         4         3         2         5     9      180.000000       -0.418463         4
         4         3         2        29     9        0.000000        0.061252         1
         4         3         2        29     9      180.000000       13.337189         2
         4         3         2        29     9        0.000000       -0.359259         3
         4         3         2        29     9      180.000000        0.130980         4
         4         3        17        18     9        0.000000       -0.216344         1
         4         3        17        18     9      180.000000        3.383541         2
         4         3        17        18     9        0.000000        0.029880         3
         4         3        17        18     9      180.000000        0.116824         4
         4         3        17        37     9        0.000000       -0.412558         1
         4         3        17        37     9      180.000000        3.316538         2
         4         3        17        37     9        0.000000        0.047273         3
         4         3        17        37     9      180.000000        0.093660         4
         5         2         3        17     9        0.000000        0.246511         1
         5         2         3        17     9      180.000000       19.522853         2
         5         2         3        17     9        0.000000        0.055608         3
         5         2         3        17     9      180.000000       -0.772829         4
         5         6         1        11     9        0.000000        0.148663         1
         5         6         1        11     9      180.000000       12.484182         2
         5         6         1        11     9        0.000000        0.021580         3
         5         6         1        11     9      180.000000       -0.433301         4
         5         6         7         8     9        0.000000        0.172539         1
         5         6         7         8     9      180.000000       16.817876         2
         5         6         7         8     9        0.000000       -0.048042         3
         5         6         7         8     9      180.000000       -0.239301         4
         5        10         9         8     9        0.000000       -0.161990         1
         5        10         9         8     9      180.000000       25.805864         2
         5        10         9         8     9        0.000000       -0.989158         3
         5        10         9         8     9      180.000000       -0.201960         4
         5        10         9        32     9        0.000000        0.808513         1
         5        10         9        32     9      180.000000       23.535886         2
         5        10         9        32     9        0.000000        0.064004         3
         5        10         9        32     9      180.000000       -0.475717         4
         6         1         4        30     9        0.000000        0.182294         1
         6         1         4        30     9      180.000000       15.796543         2
         6         1         4        30     9        0.000000       -0.326275         3
         6         1         4        30     9      180.000000        0.176074         4
         6         1        11        12     9        0.000000       -0.084562         1
         6         1        11        12     9      180.000000        3.963980         2
         6         1        11        12     9        0.000000       -0.211108         3
         6         1        11        12     9      180.000000        0.727549         4
         6         1        11        16     9        0.000000       -0.084562         1
         6         1        11        16     9      180.000000        3.963980         2
         6         1        11        16     9        0.000000       -0.211108         3
         6         1        11        16     9      180.000000        0.727549         4
         6         5         2        29     9        0.000000       -0.168579         1
         6         5         2        29     9      180.000000       10.564597         2
         6         5         2        29     9        0.000000       -0.261929         3
         6         5         2        29     9      180.000000       -0.006921         4
         6         5        10         9     9        0.000000       -0.113243         1
         6         5        10         9     9      180.000000       16.457234         2
         6         5        10         9     9        0.000000        0.035209         3
         6         5        10         9     9      180.000000       -0.227308         4
         6         7         8         9     9        0.000000        0.104497         1
         6         7         8         9     9      180.000000       25.053764         2
         6         7         8         9     9        0.000000       -0.955082         3
         6         7         8         9     9      180.000000       -0.160012         4
         6         7         8        31     9        0.000000        0.726539         1
         6         7         8        31     9      180.000000       22.911942         2
         6         7         8        31     9        0.000000        0.102107         3
         6         7         8        31     9      180.000000       -0.545266         4
         7         6         1        11     9        0.000000       -0.433074         1
         7         6         1        11     9      180.000000       12.347925         2
         7         6         1        11     9        0.000000       -0.103916         3
         7         6         1        11     9      180.000000       -0.460025         4
         7         6         5        10     9        0.000000        0.152873         1
         7         6         5        10     9      180.000000       11.072213         2
         7         6         5        10     9        0.000000        0.155830         3
         7         6         5        10     9      180.000000       -0.400050         4
         7         8         9        10     9        0.000000       -0.713203         1
         7         8         9        10     9      180.000000       11.742392         2
         7         8         9        10     9        0.000000       -0.552181         3
         7         8         9        10     9      180.000000       -0.521535         4
         7         8         9        32     9        0.000000       -0.026031         1
         7         8         9        32     9      180.000000        9.508286         2
         7         8         9        32     9        0.000000       -0.255749         3
         7         8         9        32     9      180.000000       -0.134502         4
        10         5         2        29     9        0.000000        0.016940         1
        10         5         2        29     9      180.000000       11.980067         2
        10         5         2        29     9        0.000000       -0.349905         3
        10         5         2        29     9      180.000000        0.012863         4
        10         9         8        31     9        0.000000       -0.199022         1
        10         9         8        31     9      180.000000        9.267615         2
        10         9         8        31     9        0.000000       -0.318099         3
        10         9         8        31     9      180.000000       -0.090079         4
        11         1         4        30     9        0.000000        0.012429         1
        11         1         4        30     9      180.000000       15.024966         2
        11         1         4        30     9        0.000000       -0.147855         3
        11         1         4        30     9      180.000000        0.089758         4
        11        12        13        14     9        0.000000       -0.067365         1
        11        12        13        14     9      180.000000       19.078006         2
        11        12        13        14     9        0.000000       -1.572384         3
        11        12        13        14     9      180.000000       -0.468285         4
        11        12        13        34     9        0.000000       -0.069528         1
        11        12        13        34     9      180.000000       14.829242         2
        11        12        13        34     9        0.000000       -0.602932         3
        11        12        13        34     9      180.000000        0.069598         4
        11        16        15        14     9        0.000000       -0.067365         1
        11        16        15        14     9      180.000000       19.078006         2
        11        16        15        14     9        0.000000       -1.572384         3
        11        16        15        14     9      180.000000       -0.468285         4
        11        16        15        35     9        0.000000       -0.069528         1
        11        16        15        35     9      180.000000       14.829242         2
        11        16        15        35     9        0.000000       -0.602932         3
        11        16        15        35     9      180.000000        0.069598         4
        12        11        16        15     9        0.000000       -0.085662         1
        12        11        16        15     9      180.000000       18.486830         2
        12        11        16        15     9        0.000000       -1.218154         3
        12        11        16        15     9      180.000000       -0.359547         4
        12        11        16        36     9        0.000000        0.078978         1
        12        11        16        36     9      180.000000       14.140054         2
        12        11        16        36     9        0.000000       -0.507878         3
        12        11        16        36     9      180.000000        0.099283         4
        12        13        14        15     9        0.000000       -0.071207         1
        12        13        14        15     9      180.000000       17.717800         2
        12        13        14        15     9        0.000000       -1.242606         3
        12        13        14        15     9      180.000000       -0.385145         4
        12        13        14        28     9        0.000000        0.388060         1
        12        13        14        28     9      180.000000       17.443364         2
        12        13        14        28     9        0.000000        0.213625         3
        12        13        14        28     9      180.000000       -0.386074         4
        13        12        11        16     9        0.000000       -0.085662         1
        13        12        11        16     9      180.000000       18.486830         2
        13        12        11        16     9        0.000000       -1.218154         3
        13        12        11        16     9      180.000000       -0.359547         4
        13        14        15        16     9        0.000000       -0.071207         1
        13        14        15        16     9      180.000000       17.717800         2
        13        14        15        16     9        0.000000       -1.242606         3
        13        14        15        16     9      180.000000       -0.385145         4
        13        14        15        35     9        0.000000        0.030466         1
        13        14        15        35     9      180.000000       13.658238         2
        13        14        15        35     9        0.000000       -0.555029         3
        13        14        15        35     9      180.000000        0.108211         4
        14        13        12        33     9        0.000000        0.071170         1
        14        13        12        33     9      180.000000       14.874771         2
        14        13        12        33     9        0.000000       -0.661509         3
        14        13        12        33     9      180.000000        0.125637         4
        14        15        16        36     9        0.000000        0.071170         1
        14        15        16        36     9      180.000000       14.874770         2
        14        15        16        36     9        0.000000       -0.661508         3
        14        15        16        36     9      180.000000        0.125637         4
        15        14        13        34     9        0.000000        0.030466         1
        15        14        13        34     9      180.000000       13.658238         2
        15        14        13        34     9        0.000000       -0.555029         3
        15        14        13        34     9      180.000000        0.108211         4
        16        11        12        33     9        0.000000        0.078977         1
        16        11        12        33     9      180.000000       14.140054         2
        16        11        12        33     9        0.000000       -0.507879         3
        16        11        12        33     9      180.000000        0.099283         4
        16        15        14        28     9        0.000000        0.388060         1
        16        15        14        28     9      180.000000       17.443364         2
        16        15        14        28     9        0.000000        0.213625         3
        16        15        14        28     9      180.000000       -0.386074         4
        17         3         2        29     9        0.000000       -0.006423         1
        17         3         2        29     9      180.000000       15.238159         2
        17         3         2        29     9        0.000000       -0.072526         3
        17         3         2        29     9      180.000000        0.161232         4
        17         3         4        30     9        0.000000       -0.052764         1
        17         3         4        30     9      180.000000       14.029721         2
        17         3         4        30     9        0.000000       -0.046524         3
        17         3         4        30     9      180.000000        0.147453         4
        17        18        19        20     9        0.000000        0.186749         1
        17        18        19        20     9      180.000000       16.683917         2
        17        18        19        20     9        0.000000        0.179116         3
        17        18        19        20     9      180.000000       -0.684725         4
        17        18        19        38     9        0.000000       -0.299543         1
        17        18        19        38     9      180.000000       14.371219         2
        17        18        19        38     9        0.000000       -0.253273         3
        17        18        19        38     9      180.000000        0.145399         4
        17        18        23        22     9        0.000000        0.142200         1
        17        18        23        22     9      180.000000       15.897986         2
        17        18        23        22     9        0.000000        0.030266         3
        17        18        23        22     9      180.000000       -0.460852         4
        17        18        23        24     9        0.000000       -0.927876         1
        17        18        23        24     9      180.000000       13.516792         2
        17        18        23        24     9        0.000000       -0.073923         3
        17        18        23        24     9      180.000000       -0.622706         4
        18        19        20        21     9        0.000000        0.319722         1
        18        19        20        21     9      180.000000       22.949103         2
        18        19        20        21     9        0.000000       -0.741217         3
        18        19        20        21     9      180.000000        0.175923         4
        18        23        22        21     9        0.000000       -0.049560         1
        18        23        22        21     9      180.000000       18.886873         2
        18        23        22        21     9        0.000000       -2.021566         3
        18        23        22        21     9      180.000000       -0.405198         4
        18        23        22        40     9        0.000000        0.229106         1
        18        23        22        40     9      180.000000       14.976780         2
        18        23        22        40     9        0.000000       -0.507226         3
        18        23        22        40     9      180.000000        0.085320         4
        18        23        24        25     9        0.000000       -1.334284         1
        18        23        24        25     9      180.000000        0.814377         2
        18        23        24        25     9        0.000000        0.785313         3
        18        23        24        25     9      180.000000       -0.187784         4
        18        23        24        26     9        0.000000       -1.334284         1
        18        23        24        26     9      180.000000        0.814377         2
        18        23        24        26     9        0.000000        0.785313         3
        18        23        24        26     9      180.000000       -0.187784         4
        18        23        24        27     9        0.000000        3.729086         1
        18        23        24        27     9      180.000000       -2.195929         2
        18        23        24        27     9        0.000000        0.799429         3
        18        23        24        27     9      180.000000        0.054293         4
        19        18        17        37     9        0.000000       -1.272590         1
        19        18        17        37     9      180.000000        2.989698         2
        19        18        17        37     9        0.000000       -0.423807         3
        19        18        17        37     9      180.000000        0.040258         4
        19        18        23        22     9        0.000000       -0.037262         1
        19        18        23        22     9      180.000000       14.380144         2
        19        18        23        22     9        0.000000       -0.900344         3
        19        18        23        22     9      180.000000       -0.221952         4
        19        18        23        24     9        0.000000        0.366400         1
        19        18        23        24     9      180.000000       11.025740         2
        19        18        23        24     9        0.000000        0.150288         3
        19        18        23        24     9      180.000000       -0.363523         4
        19        20        21        22     9        0.000000        0.177563         1
        19        20        21        22     9      180.000000       22.523862         2
        19        20        21        22     9        0.000000       -0.901752         3
        19        20        21        22     9      180.000000       -0.193725         4
        19        20        21        39     9        0.000000        0.988694         1
        19        20        21        39     9      180.000000       20.417146         2
        19        20        21        39     9        0.000000        0.253449         3
        19        20        21        39     9      180.000000       -0.430136         4
        20        19        18        23     9        0.000000       -0.510166         1
        20        19        18        23     9      180.000000       14.375531         2
        20        19        18        23     9        0.000000       -0.595358         3
        20        19        18        23     9      180.000000       -0.489937         4
        20        21        22        23     9        0.000000       -0.220827         1
        20        21        22        23     9      180.000000       18.549630         2
        20        21        22        23     9        0.000000       -1.222990         3
        20        21        22        23     9      180.000000       -0.581963         4
        20        21        22        40     9        0.000000        0.066372         1
        20        21        22        40     9      180.000000       14.573595         2
        20        21        22        40     9        0.000000       -0.318036         3
        20        21        22        40     9      180.000000       -0.017204         4
        21        20        19        38     9        0.000000        1.115355         1
        21        20        19        38     9      180.000000       20.962220         2
        21        20        19        38     9        0.000000        0.247396         3
        21        20        19        38     9      180.000000       -0.016300         4
        21        22        23        24     9        0.000000        0.192524         1
        21        22        23        24     9      180.000000       13.995354         2
        21        22        23        24     9        0.000000        0.189776         3
        21        22        23        24     9      180.000000       -0.443900         4
        22        23        24        25     9        0.000000       -0.090526         1
        22        23        24        25     9      180.000000        0.655864         2
        22        23        24        25     9        0.000000       -0.321290         3
        22        23        24        25     9      180.000000       -0.045697         4
        22        23        24        26     9        0.000000       -0.090526         1
        22        23        24        26     9      180.000000        0.655864         2
        22        23        24        26     9        0.000000       -0.321290         3
        22        23        24        26     9      180.000000       -0.045697         4
        22        23        24        27     9        0.000000        0.119865         1
        22        23        24        27     9      180.000000       -0.559450         2
        22        23        24        27     9        0.000000       -0.551232         3
        22        23        24        27     9      180.000000        0.255504         4
        23        18        17        37     9        0.000000        2.440458         1
        23        18        17        37     9      180.000000        3.205589         2
        23        18        17        37     9        0.000000       -0.727467         3
        23        18        17        37     9      180.000000        0.027702         4
        23        18        19        38     9        0.000000        0.058995         1
        23        18        19        38     9      180.000000       12.296401         2
        23        18        19        38     9        0.000000       -0.329284         3
        23        18        19        38     9      180.000000        0.069067         4
        23        22        21        39     9        0.000000        0.008007         1
        23        22        21        39     9      180.000000       14.871302         2
        23        22        21        39     9        0.000000       -0.365301         3
        23        22        21        39     9      180.000000       -0.122425         4
        23        24        27        41     9        0.000000        0.134670         1
        23        24        27        41     9      180.000000       -0.180389         2
        23        24        27        41     9        0.000000        0.326690         3
        23        24        27        41     9      180.000000       -0.016353         4
        23        24        27        42     9        0.000000        0.134670         1
        23        24        27        42     9      180.000000       -0.180389         2
        23        24        27        42     9        0.000000        0.326690         3
        23        24        27        42     9      180.000000       -0.016353         4
        23        24        27        43     9        0.000000        0.134670         1
        23        24        27        43     9      180.000000       -0.180389         2
        23        24        27        43     9        0.000000        0.326690         3
        23        24        27        43     9      180.000000       -0.016353         4
        24        23        22        40     9        0.000000       -0.032266         1
        24        23        22        40     9      180.000000       12.082713         2
        24        23        22        40     9        0.000000       -0.269977         3
        24        23        22        40     9      180.000000        0.014566         4
        25        24        27        41     9        0.000000       -0.020339         1
        25        24        27        41     9      180.000000       -0.042566         2
        25        24        27        41     9        0.000000        0.357266         3
        25        24        27        41     9      180.000000        0.004050         4
        25        24        27        42     9        0.000000       -0.020339         1
        25        24        27        42     9      180.000000       -0.042566         2
        25        24        27        42     9        0.000000        0.357266         3
        25        24        27        42     9      180.000000        0.004050         4
        25        24        27        43     9        0.000000       -0.020339         1
        25        24        27        43     9      180.000000       -0.042566         2
        25        24        27        43     9        0.000000        0.357266         3
        25        24        27        43     9      180.000000        0.004050         4
        26        24        27        41     9        0.000000       -0.020339         1
        26        24        27        41     9      180.000000       -0.042566         2
        26        24        27        41     9        0.000000        0.357266         3
        26        24        27        41     9      180.000000        0.004050         4
        26        24        27        42     9        0.000000       -0.020339         1
        26        24        27        42     9      180.000000       -0.042566         2
        26        24        27        42     9        0.000000        0.357266         3
        26        24        27        42     9      180.000000        0.004050         4
        26        24        27        43     9        0.000000       -0.020339         1
        26        24        27        43     9      180.000000       -0.042566         2
        26        24        27        43     9        0.000000        0.357266         3
        26        24        27        43     9      180.000000        0.004050         4
        28        14        13        34     9        0.000000        0.129625         1
        28        14        13        34     9      180.000000       12.850335         2
        28        14        13        34     9        0.000000       -0.020811         3
        28        14        13        34     9      180.000000        0.178027         4
        28        14        15        35     9        0.000000        0.129625         1
        28        14        15        35     9      180.000000       12.850335         2
        28        14        15        35     9        0.000000       -0.020811         3
        28        14        15        35     9      180.000000        0.178027         4
        31         8         9        32     9        0.000000       -0.431715         1
        31         8         9        32     9      180.000000        6.869070         2
        31         8         9        32     9        0.000000       -0.569257         3
        31         8         9        32     9      180.000000        0.186659         4
        33        12        13        34     9        0.000000       -0.215391         1
        33        12        13        34     9      180.000000       12.471265         2
        33        12        13        34     9        0.000000       -0.725555         3
        33        12        13        34     9      180.000000        0.295250         4
        35        15        16        36     9        0.000000       -0.215392         1
        35        15        16        36     9      180.000000       12.471265         2
        35        15        16        36     9        0.000000       -0.725554         3
        35        15        16        36     9      180.000000        0.295250         4
        39        21        22        40     9        0.000000       -0.049751         1
        39        21        22        40     9      180.000000       11.944933         2
        39        21        22        40     9        0.000000       -0.710210         3
        39        21        22        40     9      180.000000        0.205813         4

[ dihedrals ] ; impropers
;       ai        aj        ak        al funct           phase               k        pn
         1         4         6        11     4      180.000000        0.507966         2
         1         6        11         4     4      180.000000        0.507966         2
         1        11         4         6     4      180.000000        0.507966         2
         8         7         9        31     4      180.000000        4.409855         2
         8         9        31         7     4      180.000000        4.409855         2
         8        31         7         9     4      180.000000        4.409855         2
         9         8        10        32     4      180.000000        4.162411         2
         9        10        32         8     4      180.000000        4.162411         2
         9        32         8        10     4      180.000000        4.162411         2
        12        11        13        33     4      180.000000        0.651210         2
        12        13        33        11     4      180.000000        0.651210         2
        12        33        11        13     4      180.000000        0.651210         2
        13        12        14        34     4      180.000000        1.270176         2
        13        14        34        12     4      180.000000        1.270176         2
        13        34        12        14     4      180.000000        1.270176         2
        15        14        16        35     4      180.000000        1.270176         2
        15        16        35        14     4      180.000000        1.270176         2
        15        35        14        16     4      180.000000        1.270176         2
        16        11        15        36     4      180.000000        0.651210         2
        16        15        36        11     4      180.000000        0.651210         2
        16        36        11        15     4      180.000000        0.651210         2
        19        18        20        38     4      180.000000        3.547250         2
        19        20        38        18     4      180.000000        3.547250         2
        19        38        18        20     4      180.000000        3.547250         2
        21        20        22        39     4      180.000000        3.347116         2
        21        22        39        20     4      180.000000        3.347116         2
        21        39        20        22     4      180.000000        3.347116         2

[ pairs ]
;       ai        aj funct
         1         2     1
         1         8     1
         1        10     1
         1        13     1
         1        15     1
         1        17     1
         1        33     1
         1        36     1
         2         7     1
         2         9     1
         2        18     1
         2        30     1
         2        37     1
         3         6     1
         3        10     1
         3        11     1
         3        19     1
         3        23     1
         4         5     1
         4         7     1
         4        12     1
         4        16     1
         4        18     1
         4        29     1
         4        37     1
         5         8     1
         5        11     1
         5        17     1
         5        32     1
         6         9     1
         6        12     1
         6        16     1
         6        29     1
         6        30     1
         6        31     1
         7        10     1
         7        11     1
         7        32     1
        10        29     1
        10        31     1
        11        14     1
        11        30     1
        11        34     1
        11        35     1
        12        15     1
        12        28     1
        12        36     1
        13        16     1
        13        35     1
        14        33     1
        14        36     1
        15        34     1
        16        28     1
        16        33     1
        17        20     1
        17        22     1
        17        24     1
        17        29     1
        17        30     1
        17        38     1
        18        21     1
        18        25     1
        18        26     1
        18        27     1
        18        40     1
        19        22     1
        19        24     1
        19        37     1
        19        39     1
        20        23     1
        20        40     1
        21        24     1
        21        38     1
        22        25     1
        22        26     1
        22        27     1
        23        37     1
        23        38     1
        23        39     1
        23        41     1
        23        42     1
        23        43     1
        24        40     1
        25        41     1
        25        42     1
        25        43     1
        26        41     1
        26        42     1
        26        43     1
        28        34     1
        28        35     1
        31        32     1
        33        34     1
        35        36     1
        39        40     1
