; ITP file created by ByteFF-ML, 2026-02-21 07:43:26.237945

[ atomtypes ]
;name           bonded.type        at.num        mass        charge   ptype           sigma         epsilon
 c0bf                                   6      0.0000       0.00000       A     3.31169e-01     4.10903e-01
 c1bf                                   6      0.0000       0.00000       A     3.31696e-01     4.13508e-01
 c2bf                                   6      0.0000       0.00000       A     3.31534e-01     4.11219e-01
 c3bf                                   6      0.0000       0.00000       A     3.31572e-01     4.14462e-01
 c4bf                                   6      0.0000       0.00000       A     3.31387e-01     4.12836e-01
 c5bf                                   6      0.0000       0.00000       A     3.31582e-01     4.11652e-01
 n6bf                                   7      0.0000       0.00000       A     3.38246e-01     3.93082e-01
 c7bf                                   6      0.0000       0.00000       A     3.31514e-01     4.13144e-01
 c8bf                                   6      0.0000       0.00000       A     3.31562e-01     4.13392e-01
 n9bf                                   7      0.0000       0.00000       A     3.38456e-01     3.92772e-01
 c10bf                                  6      0.0000       0.00000       A     3.31448e-01     4.09911e-01
 c11bf                                  6      0.0000       0.00000       A     3.31464e-01     4.13393e-01
 c12bf                                  6      0.0000       0.00000       A     3.31511e-01     4.12609e-01
 c13bf                                  6      0.0000       0.00000       A     3.31464e-01     4.13393e-01
 n14bf                                  7      0.0000       0.00000       A     3.27929e-01     6.45227e-01
 c15bf                                  6      0.0000       0.00000       A     3.31581e-01     4.12886e-01
 c16bf                                  6      0.0000       0.00000       A     3.31706e-01     4.11679e-01
 n17bf                                  7      0.0000       0.00000       A     3.38344e-01     3.92967e-01
 c18bf                                  6      0.0000       0.00000       A     3.31482e-01     4.12140e-01
 c19bf                                  6      0.0000       0.00000       A     3.31194e-01     4.12903e-01
 c20bf                                  6      0.0000       0.00000       A     3.31298e-01     4.15822e-01
 s21bf                                 16      0.0000       0.00000       A     4.05645e-01     2.55727e-01
 o22bf                                  8      0.0000       0.00000       A     3.04857e-01     6.11370e-01
 o23bf                                  8      0.0000       0.00000       A     3.04857e-01     6.11370e-01
 c24bf                                  6      0.0000       0.00000       A     3.39611e-01     4.49156e-01
 c25bf                                  6      0.0000       0.00000       A     3.31511e-01     4.12609e-01
 c26bf                                  6      0.0000       0.00000       A     3.31556e-01     4.13682e-01
 c27bf                                  6      0.0000       0.00000       A     3.39886e-01     4.48642e-01
 f28bf                                  9      0.0000       0.00000       A     3.03451e-01     3.47961e-01
 f29bf                                  9      0.0000       0.00000       A     3.03451e-01     3.47961e-01
 f30bf                                  9      0.0000       0.00000       A     3.03451e-01     3.47961e-01
 h31bf                                  1      0.0000       0.00000       A     2.62399e-01     6.76733e-02
 h32bf                                  1      0.0000       0.00000       A     2.62381e-01     6.75967e-02
 h33bf                                  1      0.0000       0.00000       A     2.53506e-01     6.72855e-02
 h34bf                                  1      0.0000       0.00000       A     2.53506e-01     6.72855e-02
 h35bf                                  1      0.0000       0.00000       A     2.62459e-01     6.73908e-02
 h36bf                                  1      0.0000       0.00000       A     2.62577e-01     6.74850e-02
 h37bf                                  1      0.0000       0.00000       A     2.62459e-01     6.73908e-02
 h38bf                                  1      0.0000       0.00000       A     1.10952e-01     4.04428e-02
 h39bf                                  1      0.0000       0.00000       A     2.53583e-01     6.80915e-02
 h40bf                                  1      0.0000       0.00000       A     2.53644e-01     6.69998e-02
 h41bf                                  1      0.0000       0.00000       A     2.62744e-01     6.79622e-02
 h42bf                                  1      0.0000       0.00000       A     2.42021e-01     8.71597e-02
 h43bf                                  1      0.0000       0.00000       A     2.42021e-01     8.71597e-02
 h44bf                                  1      0.0000       0.00000       A     2.42021e-01     8.71597e-02
 h45bf                                  1      0.0000       0.00000       A     2.62577e-01     6.74850e-02

[ moleculetype ]
;name             nrexcl
 46                    3

[ atoms ]
;       nr            type      resi   res      atom      cgnr      charge          mass ; qtot
         1            c0bf         1   UNL        c0         1     0.02685       12.0110 ; qtot    0.027
         2            c1bf         1   UNL        c1         2    -0.14199       12.0110 ; qtot   -0.115
         3            c2bf         1   UNL        c2         3     0.30796       12.0110 ; qtot    0.193
         4            c3bf         1   UNL        c3         4    -0.12989       12.0110 ; qtot    0.063
         5            c4bf         1   UNL        c4         5     0.25875       12.0110 ; qtot    0.322
         6            c5bf         1   UNL        c5         6     0.21874       12.0110 ; qtot    0.540
         7            n6bf         1   UNL        n6         7    -0.62219       14.0070 ; qtot   -0.082
         8            c7bf         1   UNL        c7         8     0.29317       12.0110 ; qtot    0.211
         9            c8bf         1   UNL        c8         9     0.29405       12.0110 ; qtot    0.505
        10            n9bf         1   UNL        n9        10    -0.62285       14.0070 ; qtot   -0.117
        11           c10bf         1   UNL       c10        11    -0.03080       12.0110 ; qtot   -0.148
        12           c11bf         1   UNL       c11        12    -0.08867       12.0110 ; qtot   -0.237
        13           c12bf         1   UNL       c12        13    -0.06232       12.0110 ; qtot   -0.299
        14           c13bf         1   UNL       c13        14    -0.08867       12.0110 ; qtot   -0.388
        15           n14bf         1   UNL       n14        15    -0.96404       14.0070 ; qtot   -1.352
        16           c15bf         1   UNL       c15        16     0.35358       12.0110 ; qtot   -0.998
        17           c16bf         1   UNL       c16        17     0.27846       12.0110 ; qtot   -0.720
        18           n17bf         1   UNL       n17        18    -0.60355       14.0070 ; qtot   -1.323
        19           c18bf         1   UNL       c18        19     0.28639       12.0110 ; qtot   -1.037
        20           c19bf         1   UNL       c19        20    -0.03902       12.0110 ; qtot   -1.076
        21           c20bf         1   UNL       c20        21    -0.27733       12.0110 ; qtot   -1.353
        22           s21bf         1   UNL       s21        22     0.99436       32.0670 ; qtot   -0.359
        23           o22bf         1   UNL       o22        23    -0.51400       15.9990 ; qtot   -0.873
        24           o23bf         1   UNL       o23        24    -0.51400       15.9990 ; qtot   -1.387
        25           c24bf         1   UNL       c24        25    -0.29607       12.0110 ; qtot   -1.683
        26           c25bf         1   UNL       c25        26    -0.06232       12.0110 ; qtot   -1.745
        27           c26bf         1   UNL       c26        27    -0.18490       12.0110 ; qtot   -1.930
        28           c27bf         1   UNL       c27        28     0.33861       12.0110 ; qtot   -1.592
        29           f28bf         1   UNL       f28        29    -0.10416       18.9980 ; qtot   -1.696
        30           f29bf         1   UNL       f29        30    -0.10416       18.9980 ; qtot   -1.800
        31           f30bf         1   UNL       f30        31    -0.10416       18.9980 ; qtot   -1.904
        32           h31bf         1   UNL       h31        32     0.14328        1.0080 ; qtot   -1.761
        33           h32bf         1   UNL       h32        33     0.12777        1.0080 ; qtot   -1.633
        34           h33bf         1   UNL       h33        34     0.03158        1.0080 ; qtot   -1.602
        35           h34bf         1   UNL       h34        35     0.03160        1.0080 ; qtot   -1.570
        36           h35bf         1   UNL       h35        36     0.12719        1.0080 ; qtot   -1.443
        37           h36bf         1   UNL       h36        37     0.13305        1.0080 ; qtot   -1.310
        38           h37bf         1   UNL       h37        38     0.12719        1.0080 ; qtot   -1.183
        39           h38bf         1   UNL       h38        39     0.51181        1.0080 ; qtot   -0.671
        40           h39bf         1   UNL       h39        40     0.03589        1.0080 ; qtot   -0.635
        41           h40bf         1   UNL       h40        41     0.03700        1.0080 ; qtot   -0.598
        42           h41bf         1   UNL       h41        42     0.15079        1.0080 ; qtot   -0.447
        43           h42bf         1   UNL       h42        43     0.10467        1.0080 ; qtot   -0.342
        44           h43bf         1   UNL       h43        44     0.10467        1.0080 ; qtot   -0.238
        45           h44bf         1   UNL       h44        45     0.10467        1.0080 ; qtot   -0.133
        46           h45bf         1   UNL       h45        46     0.13301        1.0080 ; qtot   -0.000

[ bonds ]
;       ai        aj funct               r               k
         1         4     1        0.138589   331490.219629
         1         6     1        0.143424   237832.360254
         1        11     1        0.148370   214723.344775
         2         3     1        0.138622   325678.790723
         2         5     1        0.141521   284459.010498
         2        32     1        0.108434   324306.120020
         3         4     1        0.142352   251288.271777
         3        15     1        0.140593   260287.089453
         4        33     1        0.108425   321462.077686
         5         6     1        0.143377   223875.308496
         5        10     1        0.136675   270922.835840
         6         7     1        0.136376   268524.084082
         7         8     1        0.131881   374103.202393
         8         9     1        0.142216   238192.510107
         8        34     1        0.108820   315940.162988
         9        10     1        0.131846   380187.239941
         9        35     1        0.108836   315483.763770
        11        12     1        0.140519   284622.652295
        11        14     1        0.140519   284622.652295
        12        13     1        0.139455   321250.630420
        12        36     1        0.108477   322661.300342
        13        27     1        0.139920   297926.745703
        13        37     1        0.108525   322648.353027
        14        26     1        0.139455   321250.630420
        14        38     1        0.108477   322661.300342
        15        16     1        0.138908   287909.073975
        15        39     1        0.101485   406811.259766
        16        17     1        0.141520   257222.712939
        16        21     1        0.141314   265581.366357
        17        18     1        0.133244   341315.137256
        17        40     1        0.108642   319937.154736
        18        19     1        0.133977   313656.558057
        19        20     1        0.139506   299656.731641
        19        41     1        0.108702   319547.177539
        20        21     1        0.139402   313134.068799
        20        42     1        0.108446   326160.114160
        21        22     1        0.180715   124483.627490
        22        23     1        0.147464   495020.215039
        22        24     1        0.147464   495020.215039
        22        25     1        0.180772   140787.539600
        25        43     1        0.109028   319230.108789
        25        44     1        0.109028   319230.108789
        25        45     1        0.109028   319230.108789
        26        27     1        0.139920   297926.745703
        26        46     1        0.108525   322648.327490
        27        28     1        0.150541   194577.898071
        28        29     1        0.135847   221783.742627
        28        30     1        0.135847   221783.742627
        28        31     1        0.135847   221783.742627

[ angles ]
;       ai        aj        ak funct           theta             cth
         1         4         3     1      122.386673      712.308635
         1         4        33     1      118.693504      414.669826
         1         6         5     1      118.926697      694.181692
         1         6         7     1      120.356773      430.515124
         1        11        12     1      120.753929      473.012034
         1        11        14     1      120.753929      473.012034
         2         3         4     1      119.328163      642.905028
         2         3        15     1      121.254745      492.361087
         2         5         6     1      120.561111      663.910960
         2         5        10     1      118.281189      431.308051
         3         2         5     1      120.257889      537.525444
         3         2        32     1      121.917053      423.581575
         3         4        33     1      118.503174      446.851340
         3        15        16     1      126.297546      421.362209
         3        15        39     1      115.426346      433.799388
         4         1         6     1      118.333862      533.367364
         4         1        11     1      119.138817      474.597282
         4         3        15     1      119.251770      541.101022
         5         2        32     1      117.843239      439.647833
         5         6         7     1      120.225365      782.040649
         5        10         9     1      116.661819      559.934704
         6         1        11     1      122.638329      447.198805
         6         5        10     1      121.313904      706.695897
         6         7         8     1      117.602097      602.197982
         7         8         9     1      122.256546      732.863901
         7         8        34     1      117.339157      362.478902
         8         9        10     1      122.299545      738.442163
         8         9        35     1      120.145851      429.987304
         9         8        34     1      120.142014      430.475797
        10         9        35     1      117.380966      342.428057
        11        12        13     1      120.910400      705.483268
        11        12        36     1      119.396362      409.084637
        11        14        26     1      120.910400      705.483204
        11        14        38     1      119.396362      409.084637
        12        11        14     1      118.443069      697.817857
        12        13        27     1      119.759727      695.714621
        12        13        37     1      120.135025      421.410985
        13        12        36     1      119.680649      416.194136
        13        27        26     1      119.921021      627.255377
        13        27        28     1      119.792641      525.416928
        14        26        27     1      119.759727      695.714685
        14        26        46     1      120.135025      421.410985
        15        16        17     1      122.505417      578.362793
        15        16        21     1      121.389572      543.101089
        16        15        39     1      114.551170      450.222622
        16        17        18     1      124.232620      770.104221
        16        17        40     1      119.153419      415.430290
        16        21        20     1      120.275772      760.585008
        16        21        22     1      121.663406      744.979280
        17        16        21     1      115.672928      673.644813
        17        18        19     1      118.320412      693.264846
        18        17        40     1      116.504784      340.209553
        18        19        20     1      122.754715      730.070077
        18        19        41     1      116.530663      356.374383
        19        20        21     1      118.684891      679.603961
        19        20        42     1      121.212906      424.346476
        20        19        41     1      120.538696      415.343272
        20        21        22     1      117.699501      539.880923
        21        20        42     1      120.270653      343.599700
        21        22        23     1      107.938034      640.902280
        21        22        24     1      107.938034      640.902280
        21        22        25     1      103.486084      654.077513
        22        25        43     1      107.672241      569.998432
        22        25        44     1      107.672241      569.998432
        22        25        45     1      107.672256      569.998432
        23        22        24     1      120.015259      741.792249
        23        22        25     1      107.539932      732.341476
        24        22        25     1      107.539932      732.341476
        26        14        38     1      119.680649      416.194136
        26        27        28     1      119.792641      525.416928
        27        13        37     1      120.084290      417.038968
        27        26        46     1      120.084290      417.038968
        27        28        29     1      111.957176      596.671688
        27        28        30     1      111.957176      596.671688
        27        28        31     1      111.957176      596.671688
        29        28        30     1      106.671486      701.037129
        29        28        31     1      106.671486      701.037129
        30        28        31     1      106.671486      701.037129
        43        25        44     1      111.147987      344.776258
        43        25        45     1      111.147987      344.776258
        44        25        45     1      111.147987      344.776258

[ dihedrals ] ; propers for gromacs 4.5 or higher, use funct 9
;       ai        aj        ak        al funct           phase               k        pn
         1         4         3         2     9        0.000000        0.167106         1
         1         4         3         2     9      180.000000       14.145878         2
         1         4         3         2     9        0.000000       -0.836989         3
         1         4         3         2     9      180.000000       -0.237440         4
         1         4         3        15     9        0.000000        0.195819         1
         1         4         3        15     9      180.000000       15.487036         2
         1         4         3        15     9        0.000000        0.090487         3
         1         4         3        15     9      180.000000       -0.416735         4
         1         6         5         2     9        0.000000        0.136601         1
         1         6         5         2     9      180.000000       11.601559         2
         1         6         5         2     9        0.000000       -0.462910         3
         1         6         5         2     9      180.000000       -0.223606         4
         1         6         5        10     9        0.000000       -0.339666         1
         1         6         5        10     9      180.000000       10.121464         2
         1         6         5        10     9        0.000000        0.059834         3
         1         6         5        10     9      180.000000       -0.273739         4
         1         6         7         8     9        0.000000        0.547165         1
         1         6         7         8     9      180.000000       16.540471         2
         1         6         7         8     9        0.000000        0.381745         3
         1         6         7         8     9      180.000000       -0.359247         4
         1        11        12        13     9        0.000000        0.292240         1
         1        11        12        13     9      180.000000       15.122012         2
         1        11        12        13     9        0.000000       -0.060789         3
         1        11        12        13     9      180.000000       -0.153590         4
         1        11        12        36     9        0.000000       -0.068989         1
         1        11        12        36     9      180.000000       13.031700         2
         1        11        12        36     9        0.000000       -0.187097         3
         1        11        12        36     9      180.000000        0.197622         4
         1        11        14        26     9        0.000000        0.292240         1
         1        11        14        26     9      180.000000       15.122012         2
         1        11        14        26     9        0.000000       -0.060789         3
         1        11        14        26     9      180.000000       -0.153590         4
         1        11        14        38     9        0.000000       -0.068989         1
         1        11        14        38     9      180.000000       13.031700         2
         1        11        14        38     9        0.000000       -0.187097         3
         1        11        14        38     9      180.000000        0.197622         4
         2         3         4        33     9        0.000000       -0.062430         1
         2         3         4        33     9      180.000000       11.927328         2
         2         3         4        33     9        0.000000       -0.431705         3
         2         3         4        33     9      180.000000        0.110490         4
         2         3        15        16     9        0.000000       -0.167871         1
         2         3        15        16     9      180.000000        3.526327         2
         2         3        15        16     9        0.000000       -0.356690         3
         2         3        15        16     9      180.000000        0.139573         4
         2         3        15        39     9        0.000000       -0.457731         1
         2         3        15        39     9      180.000000        3.512782         2
         2         3        15        39     9        0.000000       -0.099182         3
         2         3        15        39     9      180.000000        0.073474         4
         2         5         6         7     9        0.000000        0.337417         1
         2         5         6         7     9      180.000000       11.181904         2
         2         5         6         7     9        0.000000       -0.066177         3
         2         5         6         7     9      180.000000       -0.252704         4
         2         5        10         9     9        0.000000       -0.023334         1
         2         5        10         9     9      180.000000       18.424194         2
         2         5        10         9     9        0.000000        0.154347         3
         2         5        10         9     9      180.000000       -0.275637         4
         3         2         5         6     9        0.000000       -0.530340         1
         3         2         5         6     9      180.000000       13.660331         2
         3         2         5         6     9        0.000000       -0.959970         3
         3         2         5         6     9      180.000000       -0.183422         4
         3         2         5        10     9        0.000000       -0.306896         1
         3         2         5        10     9      180.000000       14.010283         2
         3         2         5        10     9        0.000000       -0.425194         3
         3         2         5        10     9      180.000000       -0.392180         4
         3         4         1         6     9        0.000000       -0.208331         1
         3         4         1         6     9      180.000000       19.528674         2
         3         4         1         6     9        0.000000       -1.536774         3
         3         4         1         6     9      180.000000       -0.319841         4
         3         4         1        11     9        0.000000        0.360689         1
         3         4         1        11     9      180.000000       19.459245         2
         3         4         1        11     9        0.000000        0.074636         3
         3         4         1        11     9      180.000000       -0.800739         4
         3        15        16        17     9        0.000000        1.786047         1
         3        15        16        17     9      180.000000        3.116500         2
         3        15        16        17     9        0.000000       -0.286577         3
         3        15        16        17     9      180.000000        0.145436         4
         3        15        16        21     9        0.000000       -1.816149         1
         3        15        16        21     9      180.000000        4.619862         2
         3        15        16        21     9        0.000000       -0.590150         3
         3        15        16        21     9      180.000000        0.059912         4
         4         1         6         5     9        0.000000       -0.403050         1
         4         1         6         5     9      180.000000       10.576873         2
         4         1         6         5     9        0.000000       -0.856706         3
         4         1         6         5     9      180.000000        0.029522         4
         4         1         6         7     9        0.000000        0.098681         1
         4         1         6         7     9      180.000000        9.564116         2
         4         1         6         7     9        0.000000       -0.269460         3
         4         1         6         7     9      180.000000       -0.093680         4
         4         1        11        12     9        0.000000       -0.359923         1
         4         1        11        12     9      180.000000        4.325127         2
         4         1        11        12     9        0.000000        0.084930         3
         4         1        11        12     9      180.000000        0.585497         4
         4         1        11        14     9        0.000000       -0.359923         1
         4         1        11        14     9      180.000000        4.325127         2
         4         1        11        14     9        0.000000        0.084930         3
         4         1        11        14     9      180.000000        0.585497         4
         4         3         2         5     9        0.000000       -0.167718         1
         4         3         2         5     9      180.000000       17.290347         2
         4         3         2         5     9        0.000000       -1.146064         3
         4         3         2         5     9      180.000000       -0.418463         4
         4         3         2        32     9        0.000000        0.061252         1
         4         3         2        32     9      180.000000       13.337189         2
         4         3         2        32     9        0.000000       -0.359259         3
         4         3         2        32     9      180.000000        0.130980         4
         4         3        15        16     9        0.000000       -0.216344         1
         4         3        15        16     9      180.000000        3.383541         2
         4         3        15        16     9        0.000000        0.029880         3
         4         3        15        16     9      180.000000        0.116824         4
         4         3        15        39     9        0.000000       -0.412558         1
         4         3        15        39     9      180.000000        3.316538         2
         4         3        15        39     9        0.000000        0.047273         3
         4         3        15        39     9      180.000000        0.093660         4
         5         2         3        15     9        0.000000        0.246511         1
         5         2         3        15     9      180.000000       19.522853         2
         5         2         3        15     9        0.000000        0.055608         3
         5         2         3        15     9      180.000000       -0.772829         4
         5         6         1        11     9        0.000000        0.148633         1
         5         6         1        11     9      180.000000       12.614120         2
         5         6         1        11     9        0.000000       -0.006044         3
         5         6         1        11     9      180.000000       -0.466084         4
         5         6         7         8     9        0.000000        0.172539         1
         5         6         7         8     9      180.000000       16.817876         2
         5         6         7         8     9        0.000000       -0.048042         3
         5         6         7         8     9      180.000000       -0.239301         4
         5        10         9         8     9        0.000000       -0.161990         1
         5        10         9         8     9      180.000000       25.805864         2
         5        10         9         8     9        0.000000       -0.989158         3
         5        10         9         8     9      180.000000       -0.201960         4
         5        10         9        35     9        0.000000        0.808513         1
         5        10         9        35     9      180.000000       23.535886         2
         5        10         9        35     9        0.000000        0.064004         3
         5        10         9        35     9      180.000000       -0.475717         4
         6         1         4        33     9        0.000000        0.182294         1
         6         1         4        33     9      180.000000       15.796543         2
         6         1         4        33     9        0.000000       -0.326275         3
         6         1         4        33     9      180.000000        0.176074         4
         6         1        11        12     9        0.000000       -0.010437         1
         6         1        11        12     9      180.000000        4.020721         2
         6         1        11        12     9        0.000000       -0.165560         3
         6         1        11        12     9      180.000000        0.759974         4
         6         1        11        14     9        0.000000       -0.010437         1
         6         1        11        14     9      180.000000        4.020721         2
         6         1        11        14     9        0.000000       -0.165560         3
         6         1        11        14     9      180.000000        0.759974         4
         6         5         2        32     9        0.000000       -0.168579         1
         6         5         2        32     9      180.000000       10.564597         2
         6         5         2        32     9        0.000000       -0.261929         3
         6         5         2        32     9      180.000000       -0.006921         4
         6         5        10         9     9        0.000000       -0.113243         1
         6         5        10         9     9      180.000000       16.457234         2
         6         5        10         9     9        0.000000        0.035209         3
         6         5        10         9     9      180.000000       -0.227308         4
         6         7         8         9     9        0.000000        0.104497         1
         6         7         8         9     9      180.000000       25.053764         2
         6         7         8         9     9        0.000000       -0.955082         3
         6         7         8         9     9      180.000000       -0.160012         4
         6         7         8        34     9        0.000000        0.726539         1
         6         7         8        34     9      180.000000       22.911942         2
         6         7         8        34     9        0.000000        0.102107         3
         6         7         8        34     9      180.000000       -0.545266         4
         7         6         1        11     9        0.000000       -0.510928         1
         7         6         1        11     9      180.000000       12.384239         2
         7         6         1        11     9        0.000000       -0.132188         3
         7         6         1        11     9      180.000000       -0.482571         4
         7         6         5        10     9        0.000000        0.152873         1
         7         6         5        10     9      180.000000       11.072213         2
         7         6         5        10     9        0.000000        0.155830         3
         7         6         5        10     9      180.000000       -0.400050         4
         7         8         9        10     9        0.000000       -0.713203         1
         7         8         9        10     9      180.000000       11.742392         2
         7         8         9        10     9        0.000000       -0.552181         3
         7         8         9        10     9      180.000000       -0.521535         4
         7         8         9        35     9        0.000000       -0.026031         1
         7         8         9        35     9      180.000000        9.508286         2
         7         8         9        35     9        0.000000       -0.255749         3
         7         8         9        35     9      180.000000       -0.134502         4
        10         5         2        32     9        0.000000        0.016940         1
        10         5         2        32     9      180.000000       11.980067         2
        10         5         2        32     9        0.000000       -0.349905         3
        10         5         2        32     9      180.000000        0.012863         4
        10         9         8        34     9        0.000000       -0.199022         1
        10         9         8        34     9      180.000000        9.267615         2
        10         9         8        34     9        0.000000       -0.318099         3
        10         9         8        34     9      180.000000       -0.090079         4
        11         1         4        33     9        0.000000        0.050512         1
        11         1         4        33     9      180.000000       15.179835         2
        11         1         4        33     9        0.000000       -0.134242         3
        11         1         4        33     9      180.000000        0.056950         4
        11        12        13        27     9        0.000000        0.040953         1
        11        12        13        27     9      180.000000       19.148838         2
        11        12        13        27     9        0.000000       -1.604641         3
        11        12        13        27     9      180.000000       -0.421074         4
        11        12        13        37     9        0.000000       -0.029290         1
        11        12        13        37     9      180.000000       14.994590         2
        11        12        13        37     9        0.000000       -0.563881         3
        11        12        13        37     9      180.000000        0.046837         4
        11        14        26        27     9        0.000000        0.040954         1
        11        14        26        27     9      180.000000       19.148838         2
        11        14        26        27     9        0.000000       -1.604640         3
        11        14        26        27     9      180.000000       -0.421073         4
        11        14        26        46     9        0.000000       -0.029290         1
        11        14        26        46     9      180.000000       14.994590         2
        11        14        26        46     9        0.000000       -0.563880         3
        11        14        26        46     9      180.000000        0.046837         4
        12        11        14        26     9        0.000000       -0.039819         1
        12        11        14        26     9      180.000000       18.264939         2
        12        11        14        26     9        0.000000       -1.206328         3
        12        11        14        26     9      180.000000       -0.325673         4
        12        11        14        38     9        0.000000        0.034987         1
        12        11        14        38     9      180.000000       14.378502         2
        12        11        14        38     9        0.000000       -0.545293         3
        12        11        14        38     9      180.000000        0.102442         4
        12        13        27        26     9        0.000000       -0.113156         1
        12        13        27        26     9      180.000000       18.394964         2
        12        13        27        26     9        0.000000       -1.420499         3
        12        13        27        26     9      180.000000       -0.396258         4
        12        13        27        28     9        0.000000       -0.020024         1
        12        13        27        28     9      180.000000       14.830694         2
        12        13        27        28     9        0.000000       -0.146190         3
        12        13        27        28     9      180.000000       -0.218584         4
        13        12        11        14     9        0.000000       -0.039817         1
        13        12        11        14     9      180.000000       18.264943         2
        13        12        11        14     9        0.000000       -1.206328         3
        13        12        11        14     9      180.000000       -0.325673         4
        13        27        26        14     9        0.000000       -0.113157         1
        13        27        26        14     9      180.000000       18.394962         2
        13        27        26        14     9        0.000000       -1.420499         3
        13        27        26        14     9      180.000000       -0.396257         4
        13        27        26        46     9        0.000000        0.064228         1
        13        27        26        46     9      180.000000       14.151099         2
        13        27        26        46     9        0.000000       -0.639561         3
        13        27        26        46     9      180.000000        0.053247         4
        13        27        28        29     9        0.000000       -0.026507         1
        13        27        28        29     9      180.000000        0.089177         2
        13        27        28        29     9        0.000000        0.137339         3
        13        27        28        29     9      180.000000        0.014092         4
        13        27        28        30     9        0.000000       -0.026507         1
        13        27        28        30     9      180.000000        0.089177         2
        13        27        28        30     9        0.000000        0.137339         3
        13        27        28        30     9      180.000000        0.014092         4
        13        27        28        31     9        0.000000       -0.026507         1
        13        27        28        31     9      180.000000        0.089177         2
        13        27        28        31     9        0.000000        0.137339         3
        13        27        28        31     9      180.000000        0.014092         4
        14        11        12        36     9        0.000000        0.034987         1
        14        11        12        36     9      180.000000       14.378502         2
        14        11        12        36     9        0.000000       -0.545293         3
        14        11        12        36     9      180.000000        0.102442         4
        14        26        27        28     9        0.000000       -0.020024         1
        14        26        27        28     9      180.000000       14.830692         2
        14        26        27        28     9        0.000000       -0.146191         3
        14        26        27        28     9      180.000000       -0.218584         4
        15         3         2        32     9        0.000000       -0.006423         1
        15         3         2        32     9      180.000000       15.238159         2
        15         3         2        32     9        0.000000       -0.072526         3
        15         3         2        32     9      180.000000        0.161232         4
        15         3         4        33     9        0.000000       -0.052764         1
        15         3         4        33     9      180.000000       14.029721         2
        15         3         4        33     9        0.000000       -0.046524         3
        15         3         4        33     9      180.000000        0.147453         4
        15        16        17        18     9        0.000000        0.186749         1
        15        16        17        18     9      180.000000       16.683917         2
        15        16        17        18     9        0.000000        0.179116         3
        15        16        17        18     9      180.000000       -0.684725         4
        15        16        17        40     9        0.000000       -0.299543         1
        15        16        17        40     9      180.000000       14.371219         2
        15        16        17        40     9        0.000000       -0.253273         3
        15        16        17        40     9      180.000000        0.145399         4
        15        16        21        20     9        0.000000        0.142199         1
        15        16        21        20     9      180.000000       15.897986         2
        15        16        21        20     9        0.000000        0.030266         3
        15        16        21        20     9      180.000000       -0.460852         4
        15        16        21        22     9        0.000000       -0.927876         1
        15        16        21        22     9      180.000000       13.516794         2
        15        16        21        22     9        0.000000       -0.073923         3
        15        16        21        22     9      180.000000       -0.622706         4
        16        17        18        19     9        0.000000        0.319722         1
        16        17        18        19     9      180.000000       22.949103         2
        16        17        18        19     9        0.000000       -0.741217         3
        16        17        18        19     9      180.000000        0.175923         4
        16        21        20        19     9        0.000000       -0.049559         1
        16        21        20        19     9      180.000000       18.886873         2
        16        21        20        19     9        0.000000       -2.021566         3
        16        21        20        19     9      180.000000       -0.405198         4
        16        21        20        42     9        0.000000        0.229105         1
        16        21        20        42     9      180.000000       14.976782         2
        16        21        20        42     9        0.000000       -0.507226         3
        16        21        20        42     9      180.000000        0.085320         4
        16        21        22        23     9        0.000000       -1.334284         1
        16        21        22        23     9      180.000000        0.814377         2
        16        21        22        23     9        0.000000        0.785313         3
        16        21        22        23     9      180.000000       -0.187784         4
        16        21        22        24     9        0.000000       -1.334284         1
        16        21        22        24     9      180.000000        0.814377         2
        16        21        22        24     9        0.000000        0.785313         3
        16        21        22        24     9      180.000000       -0.187784         4
        16        21        22        25     9        0.000000        3.729087         1
        16        21        22        25     9      180.000000       -2.195928         2
        16        21        22        25     9        0.000000        0.799428         3
        16        21        22        25     9      180.000000        0.054293         4
        17        16        15        39     9        0.000000       -1.272590         1
        17        16        15        39     9      180.000000        2.989698         2
        17        16        15        39     9        0.000000       -0.423807         3
        17        16        15        39     9      180.000000        0.040258         4
        17        16        21        20     9        0.000000       -0.037262         1
        17        16        21        20     9      180.000000       14.380144         2
        17        16        21        20     9        0.000000       -0.900345         3
        17        16        21        20     9      180.000000       -0.221952         4
        17        16        21        22     9        0.000000        0.366401         1
        17        16        21        22     9      180.000000       11.025740         2
        17        16        21        22     9        0.000000        0.150288         3
        17        16        21        22     9      180.000000       -0.363523         4
        17        18        19        20     9        0.000000        0.177563         1
        17        18        19        20     9      180.000000       22.523862         2
        17        18        19        20     9        0.000000       -0.901752         3
        17        18        19        20     9      180.000000       -0.193725         4
        17        18        19        41     9        0.000000        0.988694         1
        17        18        19        41     9      180.000000       20.417146         2
        17        18        19        41     9        0.000000        0.253449         3
        17        18        19        41     9      180.000000       -0.430136         4
        18        17        16        21     9        0.000000       -0.510166         1
        18        17        16        21     9      180.000000       14.375530         2
        18        17        16        21     9        0.000000       -0.595358         3
        18        17        16        21     9      180.000000       -0.489937         4
        18        19        20        21     9        0.000000       -0.220826         1
        18        19        20        21     9      180.000000       18.549630         2
        18        19        20        21     9        0.000000       -1.222990         3
        18        19        20        21     9      180.000000       -0.581963         4
        18        19        20        42     9        0.000000        0.066372         1
        18        19        20        42     9      180.000000       14.573595         2
        18        19        20        42     9        0.000000       -0.318036         3
        18        19        20        42     9      180.000000       -0.017204         4
        19        18        17        40     9        0.000000        1.115355         1
        19        18        17        40     9      180.000000       20.962220         2
        19        18        17        40     9        0.000000        0.247396         3
        19        18        17        40     9      180.000000       -0.016300         4
        19        20        21        22     9        0.000000        0.192524         1
        19        20        21        22     9      180.000000       13.995355         2
        19        20        21        22     9        0.000000        0.189775         3
        19        20        21        22     9      180.000000       -0.443899         4
        20        21        22        23     9        0.000000       -0.090527         1
        20        21        22        23     9      180.000000        0.655865         2
        20        21        22        23     9        0.000000       -0.321290         3
        20        21        22        23     9      180.000000       -0.045698         4
        20        21        22        24     9        0.000000       -0.090527         1
        20        21        22        24     9      180.000000        0.655865         2
        20        21        22        24     9        0.000000       -0.321290         3
        20        21        22        24     9      180.000000       -0.045698         4
        20        21        22        25     9        0.000000        0.119865         1
        20        21        22        25     9      180.000000       -0.559451         2
        20        21        22        25     9        0.000000       -0.551232         3
        20        21        22        25     9      180.000000        0.255503         4
        21        16        15        39     9        0.000000        2.440458         1
        21        16        15        39     9      180.000000        3.205589         2
        21        16        15        39     9        0.000000       -0.727467         3
        21        16        15        39     9      180.000000        0.027702         4
        21        16        17        40     9        0.000000        0.058995         1
        21        16        17        40     9      180.000000       12.296400         2
        21        16        17        40     9        0.000000       -0.329284         3
        21        16        17        40     9      180.000000        0.069067         4
        21        20        19        41     9        0.000000        0.008007         1
        21        20        19        41     9      180.000000       14.871301         2
        21        20        19        41     9        0.000000       -0.365300         3
        21        20        19        41     9      180.000000       -0.122425         4
        21        22        25        43     9        0.000000        0.134671         1
        21        22        25        43     9      180.000000       -0.180390         2
        21        22        25        43     9        0.000000        0.326690         3
        21        22        25        43     9      180.000000       -0.016353         4
        21        22        25        44     9        0.000000        0.134671         1
        21        22        25        44     9      180.000000       -0.180390         2
        21        22        25        44     9        0.000000        0.326690         3
        21        22        25        44     9      180.000000       -0.016353         4
        21        22        25        45     9        0.000000        0.134671         1
        21        22        25        45     9      180.000000       -0.180390         2
        21        22        25        45     9        0.000000        0.326690         3
        21        22        25        45     9      180.000000       -0.016353         4
        22        21        20        42     9        0.000000       -0.032266         1
        22        21        20        42     9      180.000000       12.082713         2
        22        21        20        42     9        0.000000       -0.269976         3
        22        21        20        42     9      180.000000        0.014566         4
        23        22        25        43     9        0.000000       -0.020339         1
        23        22        25        43     9      180.000000       -0.042566         2
        23        22        25        43     9        0.000000        0.357266         3
        23        22        25        43     9      180.000000        0.004050         4
        23        22        25        44     9        0.000000       -0.020339         1
        23        22        25        44     9      180.000000       -0.042566         2
        23        22        25        44     9        0.000000        0.357266         3
        23        22        25        44     9      180.000000        0.004050         4
        23        22        25        45     9        0.000000       -0.020339         1
        23        22        25        45     9      180.000000       -0.042566         2
        23        22        25        45     9        0.000000        0.357266         3
        23        22        25        45     9      180.000000        0.004050         4
        24        22        25        43     9        0.000000       -0.020339         1
        24        22        25        43     9      180.000000       -0.042566         2
        24        22        25        43     9        0.000000        0.357266         3
        24        22        25        43     9      180.000000        0.004050         4
        24        22        25        44     9        0.000000       -0.020339         1
        24        22        25        44     9      180.000000       -0.042566         2
        24        22        25        44     9        0.000000        0.357266         3
        24        22        25        44     9      180.000000        0.004050         4
        24        22        25        45     9        0.000000       -0.020339         1
        24        22        25        45     9      180.000000       -0.042566         2
        24        22        25        45     9        0.000000        0.357266         3
        24        22        25        45     9      180.000000        0.004050         4
        26        27        13        37     9        0.000000        0.064228         1
        26        27        13        37     9      180.000000       14.151099         2
        26        27        13        37     9        0.000000       -0.639561         3
        26        27        13        37     9      180.000000        0.053247         4
        26        27        28        29     9        0.000000       -0.026507         1
        26        27        28        29     9      180.000000        0.089177         2
        26        27        28        29     9        0.000000        0.137338         3
        26        27        28        29     9      180.000000        0.014093         4
        26        27        28        30     9        0.000000       -0.026507         1
        26        27        28        30     9      180.000000        0.089177         2
        26        27        28        30     9        0.000000        0.137338         3
        26        27        28        30     9      180.000000        0.014093         4
        26        27        28        31     9        0.000000       -0.026507         1
        26        27        28        31     9      180.000000        0.089177         2
        26        27        28        31     9        0.000000        0.137338         3
        26        27        28        31     9      180.000000        0.014093         4
        27        13        12        36     9        0.000000        0.045968         1
        27        13        12        36     9      180.000000       15.332127         2
        27        13        12        36     9        0.000000       -0.683545         3
        27        13        12        36     9      180.000000        0.093437         4
        27        26        14        38     9        0.000000        0.045968         1
        27        26        14        38     9      180.000000       15.332127         2
        27        26        14        38     9        0.000000       -0.683546         3
        27        26        14        38     9      180.000000        0.093438         4
        28        27        13        37     9        0.000000        0.037398         1
        28        27        13        37     9      180.000000       11.879115         2
        28        27        13        37     9        0.000000       -0.329610         3
        28        27        13        37     9      180.000000        0.164868         4
        28        27        26        46     9        0.000000        0.037399         1
        28        27        26        46     9      180.000000       11.879115         2
        28        27        26        46     9        0.000000       -0.329610         3
        28        27        26        46     9      180.000000        0.164868         4
        34         8         9        35     9        0.000000       -0.431715         1
        34         8         9        35     9      180.000000        6.869070         2
        34         8         9        35     9        0.000000       -0.569257         3
        34         8         9        35     9      180.000000        0.186659         4
        36        12        13        37     9        0.000000       -0.158763         1
        36        12        13        37     9      180.000000       12.584245         2
        36        12        13        37     9        0.000000       -0.847147         3
        36        12        13        37     9      180.000000        0.292712         4
        38        14        26        46     9        0.000000       -0.158763         1
        38        14        26        46     9      180.000000       12.584246         2
        38        14        26        46     9        0.000000       -0.847147         3
        38        14        26        46     9      180.000000        0.292711         4
        41        19        20        42     9        0.000000       -0.049751         1
        41        19        20        42     9      180.000000       11.944933         2
        41        19        20        42     9        0.000000       -0.710210         3
        41        19        20        42     9      180.000000        0.205813         4

[ dihedrals ] ; impropers
;       ai        aj        ak        al funct           phase               k        pn
         1         4         6        11     4      180.000000        0.518029         2
         1         6        11         4     4      180.000000        0.518029         2
         1        11         4         6     4      180.000000        0.518029         2
         8         7         9        34     4      180.000000        4.409855         2
         8         9        34         7     4      180.000000        4.409855         2
         8        34         7         9     4      180.000000        4.409855         2
         9         8        10        35     4      180.000000        4.162411         2
         9        10        35         8     4      180.000000        4.162411         2
         9        35         8        10     4      180.000000        4.162411         2
        13        12        27        37     4      180.000000        0.109243         2
        13        27        37        12     4      180.000000        0.109243         2
        13        37        12        27     4      180.000000        0.109243         2
        17        16        18        40     4      180.000000        3.547249         2
        17        18        40        16     4      180.000000        3.547249         2
        17        40        16        18     4      180.000000        3.547249         2
        19        18        20        41     4      180.000000        3.347116         2
        19        20        41        18     4      180.000000        3.347116         2
        19        41        18        20     4      180.000000        3.347116         2
        26        14        27        46     4      180.000000        0.109243         2
        26        27        46        14     4      180.000000        0.109243         2
        26        46        14        27     4      180.000000        0.109243         2

[ pairs ]
;       ai        aj funct
         1         2     1
         1         8     1
         1        10     1
         1        13     1
         1        15     1
         1        26     1
         1        36     1
         1        38     1
         2         7     1
         2         9     1
         2        16     1
         2        33     1
         2        39     1
         3         6     1
         3        10     1
         3        11     1
         3        17     1
         3        21     1
         4         5     1
         4         7     1
         4        12     1
         4        14     1
         4        16     1
         4        32     1
         4        39     1
         5         8     1
         5        11     1
         5        15     1
         5        35     1
         6         9     1
         6        12     1
         6        14     1
         6        32     1
         6        33     1
         6        34     1
         7        10     1
         7        11     1
         7        35     1
        10        32     1
        10        34     1
        11        27     1
        11        33     1
        11        37     1
        11        46     1
        12        26     1
        12        28     1
        12        38     1
        13        14     1
        13        29     1
        13        30     1
        13        31     1
        13        46     1
        14        28     1
        14        36     1
        15        18     1
        15        20     1
        15        22     1
        15        32     1
        15        33     1
        15        40     1
        16        19     1
        16        23     1
        16        24     1
        16        25     1
        16        42     1
        17        20     1
        17        22     1
        17        39     1
        17        41     1
        18        21     1
        18        42     1
        19        22     1
        19        40     1
        20        23     1
        20        24     1
        20        25     1
        21        39     1
        21        40     1
        21        41     1
        21        43     1
        21        44     1
        21        45     1
        22        42     1
        23        43     1
        23        44     1
        23        45     1
        24        43     1
        24        44     1
        24        45     1
        26        29     1
        26        30     1
        26        31     1
        26        37     1
        27        36     1
        27        38     1
        28        37     1
        28        46     1
        34        35     1
        36        37     1
        38        46     1
        41        42     1
