; ITP file created by ByteFF-ML, 2026-02-21 07:44:14.846815

[ atomtypes ]
;name           bonded.type        at.num        mass        charge   ptype           sigma         epsilon
 c0bf                                   6      0.0000       0.00000       A     3.31534e-01     4.11219e-01
 c1bf                                   6      0.0000       0.00000       A     3.31572e-01     4.14462e-01
 c2bf                                   6      0.0000       0.00000       A     3.31169e-01     4.10903e-01
 c3bf                                   6      0.0000       0.00000       A     3.31696e-01     4.13508e-01
 c4bf                                   6      0.0000       0.00000       A     3.31387e-01     4.12836e-01
 c5bf                                   6      0.0000       0.00000       A     3.31582e-01     4.11652e-01
 n6bf                                   7      0.0000       0.00000       A     3.38246e-01     3.93082e-01
 c7bf                                   6      0.0000       0.00000       A     3.31514e-01     4.13144e-01
 c8bf                                   6      0.0000       0.00000       A     3.31562e-01     4.13392e-01
 n9bf                                   7      0.0000       0.00000       A     3.38456e-01     3.92772e-01
 n10bf                                  7      0.0000       0.00000       A     3.27929e-01     6.45227e-01
 c11bf                                  6      0.0000       0.00000       A     3.31448e-01     4.09911e-01
 c12bf                                  6      0.0000       0.00000       A     3.31451e-01     4.13332e-01
 c13bf                                  6      0.0000       0.00000       A     3.31462e-01     4.12209e-01
 c14bf                                  6      0.0000       0.00000       A     3.31451e-01     4.13332e-01
 c15bf                                  6      0.0000       0.00000       A     3.31462e-01     4.12209e-01
 c16bf                                  6      0.0000       0.00000       A     3.31462e-01     4.12678e-01
 c17bf                                  6      0.0000       0.00000       A     3.31581e-01     4.12886e-01
 c18bf                                  6      0.0000       0.00000       A     3.31706e-01     4.11679e-01
 n19bf                                  7      0.0000       0.00000       A     3.38344e-01     3.92967e-01
 c20bf                                  6      0.0000       0.00000       A     3.31482e-01     4.12140e-01
 c21bf                                  6      0.0000       0.00000       A     3.31194e-01     4.12903e-01
 c22bf                                  6      0.0000       0.00000       A     3.31298e-01     4.15822e-01
 s23bf                                 16      0.0000       0.00000       A     4.05645e-01     2.55727e-01
 o24bf                                  8      0.0000       0.00000       A     3.04857e-01     6.11370e-01
 o25bf                                  8      0.0000       0.00000       A     3.04857e-01     6.11370e-01
 c26bf                                  6      0.0000       0.00000       A     3.39611e-01     4.49156e-01
 c27bf                                  6      0.0000       0.00000       A     3.39822e-01     4.50981e-01
 c28bf                                  6      0.0000       0.00000       A     3.39759e-01     4.50120e-01
 h29bf                                  1      0.0000       0.00000       A     2.62381e-01     6.75967e-02
 h30bf                                  1      0.0000       0.00000       A     2.62399e-01     6.76733e-02
 h31bf                                  1      0.0000       0.00000       A     2.53506e-01     6.72855e-02
 h32bf                                  1      0.0000       0.00000       A     2.53506e-01     6.72855e-02
 h33bf                                  1      0.0000       0.00000       A     1.10952e-01     4.04428e-02
 h34bf                                  1      0.0000       0.00000       A     2.62459e-01     6.73908e-02
 h35bf                                  1      0.0000       0.00000       A     2.62530e-01     6.73015e-02
 h36bf                                  1      0.0000       0.00000       A     2.62459e-01     6.73908e-02
 h37bf                                  1      0.0000       0.00000       A     2.62530e-01     6.73015e-02
 h38bf                                  1      0.0000       0.00000       A     2.53583e-01     6.80915e-02
 h39bf                                  1      0.0000       0.00000       A     2.53644e-01     6.69998e-02
 h40bf                                  1      0.0000       0.00000       A     2.62744e-01     6.79622e-02
 h41bf                                  1      0.0000       0.00000       A     2.42021e-01     8.71597e-02
 h42bf                                  1      0.0000       0.00000       A     2.42021e-01     8.71597e-02
 h43bf                                  1      0.0000       0.00000       A     2.42021e-01     8.71597e-02
 h44bf                                  1      0.0000       0.00000       A     2.60042e-01     8.71486e-02
 h45bf                                  1      0.0000       0.00000       A     2.60042e-01     8.71486e-02
 h46bf                                  1      0.0000       0.00000       A     2.59988e-01     8.72651e-02
 h47bf                                  1      0.0000       0.00000       A     2.59988e-01     8.72651e-02
 h48bf                                  1      0.0000       0.00000       A     2.59988e-01     8.72651e-02

[ moleculetype ]
;name             nrexcl
 47                    3

[ atoms ]
;       nr            type      resi   res      atom      cgnr      charge          mass ; qtot
         1            c0bf         1   UNL        c0         1     0.30796       12.0110 ; qtot    0.308
         2            c1bf         1   UNL        c1         2    -0.12989       12.0110 ; qtot    0.178
         3            c2bf         1   UNL        c2         3     0.02685       12.0110 ; qtot    0.205
         4            c3bf         1   UNL        c3         4    -0.14199       12.0110 ; qtot    0.063
         5            c4bf         1   UNL        c4         5     0.25875       12.0110 ; qtot    0.322
         6            c5bf         1   UNL        c5         6     0.21874       12.0110 ; qtot    0.540
         7            n6bf         1   UNL        n6         7    -0.62219       14.0070 ; qtot   -0.082
         8            c7bf         1   UNL        c7         8     0.29317       12.0110 ; qtot    0.211
         9            c8bf         1   UNL        c8         9     0.29405       12.0110 ; qtot    0.505
        10            n9bf         1   UNL        n9        10    -0.62285       14.0070 ; qtot   -0.117
        11           n10bf         1   UNL       n10        11    -0.96404       14.0070 ; qtot   -1.081
        12           c11bf         1   UNL       c11        12    -0.04017       12.0110 ; qtot   -1.122
        13           c12bf         1   UNL       c12        13    -0.08586       12.0110 ; qtot   -1.207
        14           c13bf         1   UNL       c13        14    -0.11784       12.0110 ; qtot   -1.325
        15           c14bf         1   UNL       c14        15    -0.08586       12.0110 ; qtot   -1.411
        16           c15bf         1   UNL       c15        16    -0.11784       12.0110 ; qtot   -1.529
        17           c16bf         1   UNL       c16        17    -0.07076       12.0110 ; qtot   -1.600
        18           c17bf         1   UNL       c17        18     0.35358       12.0110 ; qtot   -1.246
        19           c18bf         1   UNL       c18        19     0.27846       12.0110 ; qtot   -0.968
        20           n19bf         1   UNL       n19        20    -0.60355       14.0070 ; qtot   -1.571
        21           c20bf         1   UNL       c20        21     0.28639       12.0110 ; qtot   -1.285
        22           c21bf         1   UNL       c21        22    -0.03902       12.0110 ; qtot   -1.324
        23           c22bf         1   UNL       c22        23    -0.27733       12.0110 ; qtot   -1.601
        24           s23bf         1   UNL       s23        24     0.99436       32.0670 ; qtot   -0.607
        25           o24bf         1   UNL       o24        25    -0.51400       15.9990 ; qtot   -1.121
        26           o25bf         1   UNL       o25        26    -0.51400       15.9990 ; qtot   -1.635
        27           c26bf         1   UNL       c26        27    -0.29607       12.0110 ; qtot   -1.931
        28           c27bf         1   UNL       c27        28    -0.03148       12.0110 ; qtot   -1.962
        29           c28bf         1   UNL       c28        29    -0.09096       12.0110 ; qtot   -2.053
        30           h29bf         1   UNL       h29        30     0.12777        1.0080 ; qtot   -1.926
        31           h30bf         1   UNL       h30        31     0.14328        1.0080 ; qtot   -1.782
        32           h31bf         1   UNL       h31        32     0.03158        1.0080 ; qtot   -1.751
        33           h32bf         1   UNL       h32        33     0.03160        1.0080 ; qtot   -1.719
        34           h33bf         1   UNL       h33        34     0.51181        1.0080 ; qtot   -1.207
        35           h34bf         1   UNL       h34        35     0.12215        1.0080 ; qtot   -1.085
        36           h35bf         1   UNL       h35        36     0.11486        1.0080 ; qtot   -0.970
        37           h36bf         1   UNL       h36        37     0.12215        1.0080 ; qtot   -0.848
        38           h37bf         1   UNL       h37        38     0.11486        1.0080 ; qtot   -0.733
        39           h38bf         1   UNL       h38        39     0.03589        1.0080 ; qtot   -0.697
        40           h39bf         1   UNL       h39        40     0.03700        1.0080 ; qtot   -0.660
        41           h40bf         1   UNL       h40        41     0.15079        1.0080 ; qtot   -0.510
        42           h41bf         1   UNL       h41        42     0.10467        1.0080 ; qtot   -0.405
        43           h42bf         1   UNL       h42        43     0.10467        1.0080 ; qtot   -0.300
        44           h43bf         1   UNL       h43        44     0.10467        1.0080 ; qtot   -0.196
        45           h44bf         1   UNL       h44        45     0.04331        1.0080 ; qtot   -0.152
        46           h45bf         1   UNL       h45        46     0.04331        1.0080 ; qtot   -0.109
        47           h46bf         1   UNL       h46        47     0.03635        1.0080 ; qtot   -0.073
        48           h47bf         1   UNL       h47        48     0.03635        1.0080 ; qtot   -0.036
        49           h48bf         1   UNL       h48        49     0.03632        1.0080 ; qtot   -0.000

[ bonds ]
;       ai        aj funct               r               k
         1         2     1        0.142352   251288.271777
         1         4     1        0.138622   325678.790723
         1        11     1        0.140593   260287.089453
         2         3     1        0.138589   331490.219629
         2        30     1        0.108425   321462.077686
         3         6     1        0.143424   237832.360254
         3        12     1        0.148370   214723.344775
         4         5     1        0.141521   284459.010498
         4        31     1        0.108434   324306.120020
         5         6     1        0.143377   223875.308496
         5        10     1        0.136675   270922.835840
         6         7     1        0.136376   268524.084082
         7         8     1        0.131881   374103.202393
         8         9     1        0.142216   238192.510107
         8        32     1        0.108820   315940.162988
         9        10     1        0.131846   380187.239941
         9        33     1        0.108836   315483.763770
        11        18     1        0.138908   287909.073975
        11        34     1        0.101485   406811.259766
        12        13     1        0.140476   285411.468066
        12        15     1        0.140476   285411.468066
        13        14     1        0.139555   320540.724316
        13        35     1        0.108521   320906.032666
        14        17     1        0.140273   288647.556104
        14        36     1        0.108733   314628.423828
        15        16     1        0.139555   320540.724316
        15        37     1        0.108521   320906.032666
        16        17     1        0.140273   288647.581641
        16        38     1        0.108733   314628.449365
        17        28     1        0.151264   199503.521265
        18        19     1        0.141520   257222.712939
        18        23     1        0.141314   265581.366357
        19        20     1        0.133244   341315.111719
        19        39     1        0.108642   319937.154736
        20        21     1        0.133977   313656.583594
        21        22     1        0.139506   299656.731641
        21        40     1        0.108702   319547.177539
        22        23     1        0.139402   313134.068799
        22        41     1        0.108446   326160.114160
        23        24     1        0.180715   124483.627490
        24        25     1        0.147464   495020.215039
        24        26     1        0.147464   495020.215039
        24        27     1        0.180772   140787.539600
        27        42     1        0.109028   319230.108789
        27        43     1        0.109028   319230.108789
        27        44     1        0.109028   319230.108789
        28        29     1        0.153884   184327.544971
        28        45     1        0.109559   293458.517676
        28        46     1        0.109559   293458.517676
        29        47     1        0.109428   299407.131934
        29        48     1        0.109428   299407.131934
        29        49     1        0.109428   299407.131934

[ angles ]
;       ai        aj        ak funct           theta             cth
         1         2         3     1      122.386673      712.308635
         1         2        30     1      118.503174      446.851340
         1         4         5     1      120.257889      537.525444
         1         4        31     1      121.917053      423.581575
         1        11        18     1      126.297546      421.362209
         1        11        34     1      115.426346      433.799388
         2         1         4     1      119.328163      642.905028
         2         1        11     1      119.251770      541.101022
         2         3         6     1      118.333862      533.367364
         2         3        12     1      119.138817      474.597282
         3         2        30     1      118.693504      414.669826
         3         6         5     1      118.926697      694.181692
         3         6         7     1      120.356773      430.515124
         3        12        13     1      120.888268      470.806905
         3        12        15     1      120.888268      470.806905
         4         1        11     1      121.254745      492.361087
         4         5         6     1      120.561111      663.910960
         4         5        10     1      118.281189      431.308051
         5         4        31     1      117.843239      439.647833
         5         6         7     1      120.225365      782.040649
         5        10         9     1      116.661819      559.934704
         6         3        12     1      122.638329      447.198805
         6         5        10     1      121.313904      706.695897
         6         7         8     1      117.602097      602.197982
         7         8         9     1      122.256546      732.863901
         7         8        32     1      117.339157      362.478934
         8         9        10     1      122.299545      738.442163
         8         9        33     1      120.145851      429.987368
         9         8        32     1      120.142014      430.475797
        10         9        33     1      117.380966      342.428057
        11        18        19     1      122.505417      578.362793
        11        18        23     1      121.389572      543.101089
        12        13        14     1      120.849625      695.729305
        12        13        35     1      119.391495      407.531342
        12        15        16     1      120.849625      695.729305
        12        15        37     1      119.391495      407.531342
        13        12        15     1      118.097374      688.832498
        13        14        17     1      121.149818      716.706636
        13        14        36     1      119.333092      433.040106
        14        13        35     1      119.787254      418.805657
        14        17        16     1      117.814621      656.178196
        14        17        28     1      121.146217      501.167112
        15        16        17     1      121.149818      716.706636
        15        16        38     1      119.333092      433.040106
        16        15        37     1      119.787254      418.805657
        16        17        28     1      121.146217      501.167112
        17        14        36     1      119.521103      409.451478
        17        16        38     1      119.521103      409.451510
        17        28        29     1      112.523033      616.043564
        17        28        45     1      109.385147      502.379103
        17        28        46     1      109.385147      502.379103
        18        11        34     1      114.551170      450.222622
        18        19        20     1      124.232620      770.104221
        18        19        39     1      119.153419      415.430290
        18        23        22     1      120.275772      760.585008
        18        23        24     1      121.663406      744.979280
        19        18        23     1      115.672928      673.644813
        19        20        21     1      118.320412      693.264846
        20        19        39     1      116.504784      340.209553
        20        21        22     1      122.754715      730.070077
        20        21        40     1      116.530663      356.374383
        21        22        23     1      118.684891      679.603961
        21        22        41     1      121.212906      424.346476
        22        21        40     1      120.538696      415.343272
        22        23        24     1      117.699501      539.880923
        23        22        41     1      120.270645      343.599700
        23        24        25     1      107.938034      640.902280
        23        24        26     1      107.938034      640.902216
        23        24        27     1      103.486084      654.077513
        24        27        42     1      107.672256      569.998432
        24        27        43     1      107.672256      569.998432
        24        27        44     1      107.672256      569.998432
        25        24        26     1      120.015259      741.792185
        25        24        27     1      107.539932      732.341476
        26        24        27     1      107.539932      732.341348
        28        29        47     1      110.970459      500.467268
        28        29        48     1      110.970459      500.467268
        28        29        49     1      110.970459      500.467268
        29        28        45     1      109.248489      492.589708
        29        28        46     1      109.248489      492.589708
        42        27        43     1      111.147987      344.776258
        42        27        44     1      111.147987      344.776258
        43        27        44     1      111.147987      344.776258
        45        28        46     1      106.370018      362.511845
        47        29        48     1      107.961159      364.643491
        47        29        49     1      107.961159      364.643491
        48        29        49     1      107.961159      364.643491

[ dihedrals ] ; propers for gromacs 4.5 or higher, use funct 9
;       ai        aj        ak        al funct           phase               k        pn
         1         2         3         6     9        0.000000       -0.208331         1
         1         2         3         6     9      180.000000       19.528674         2
         1         2         3         6     9        0.000000       -1.536774         3
         1         2         3         6     9      180.000000       -0.319841         4
         1         2         3        12     9        0.000000        0.360689         1
         1         2         3        12     9      180.000000       19.459245         2
         1         2         3        12     9        0.000000        0.074636         3
         1         2         3        12     9      180.000000       -0.800739         4
         1         4         5         6     9        0.000000       -0.530340         1
         1         4         5         6     9      180.000000       13.660331         2
         1         4         5         6     9        0.000000       -0.959970         3
         1         4         5         6     9      180.000000       -0.183422         4
         1         4         5        10     9        0.000000       -0.306896         1
         1         4         5        10     9      180.000000       14.010283         2
         1         4         5        10     9        0.000000       -0.425194         3
         1         4         5        10     9      180.000000       -0.392180         4
         1        11        18        19     9        0.000000        1.786047         1
         1        11        18        19     9      180.000000        3.116500         2
         1        11        18        19     9        0.000000       -0.286577         3
         1        11        18        19     9      180.000000        0.145436         4
         1        11        18        23     9        0.000000       -1.816149         1
         1        11        18        23     9      180.000000        4.619862         2
         1        11        18        23     9        0.000000       -0.590150         3
         1        11        18        23     9      180.000000        0.059912         4
         2         1         4         5     9        0.000000       -0.167718         1
         2         1         4         5     9      180.000000       17.290347         2
         2         1         4         5     9        0.000000       -1.146064         3
         2         1         4         5     9      180.000000       -0.418463         4
         2         1         4        31     9        0.000000        0.061252         1
         2         1         4        31     9      180.000000       13.337189         2
         2         1         4        31     9        0.000000       -0.359259         3
         2         1         4        31     9      180.000000        0.130980         4
         2         1        11        18     9        0.000000       -0.216344         1
         2         1        11        18     9      180.000000        3.383541         2
         2         1        11        18     9        0.000000        0.029880         3
         2         1        11        18     9      180.000000        0.116824         4
         2         1        11        34     9        0.000000       -0.412558         1
         2         1        11        34     9      180.000000        3.316538         2
         2         1        11        34     9        0.000000        0.047273         3
         2         1        11        34     9      180.000000        0.093660         4
         2         3         6         5     9        0.000000       -0.403050         1
         2         3         6         5     9      180.000000       10.576873         2
         2         3         6         5     9        0.000000       -0.856706         3
         2         3         6         5     9      180.000000        0.029522         4
         2         3         6         7     9        0.000000        0.098681         1
         2         3         6         7     9      180.000000        9.564116         2
         2         3         6         7     9        0.000000       -0.269460         3
         2         3         6         7     9      180.000000       -0.093680         4
         2         3        12        13     9        0.000000       -0.311666         1
         2         3        12        13     9      180.000000        4.362030         2
         2         3        12        13     9        0.000000        0.067153         3
         2         3        12        13     9      180.000000        0.588187         4
         2         3        12        15     9        0.000000       -0.311666         1
         2         3        12        15     9      180.000000        4.362030         2
         2         3        12        15     9        0.000000        0.067153         3
         2         3        12        15     9      180.000000        0.588187         4
         3         2         1         4     9        0.000000        0.167106         1
         3         2         1         4     9      180.000000       14.145878         2
         3         2         1         4     9        0.000000       -0.836989         3
         3         2         1         4     9      180.000000       -0.237440         4
         3         2         1        11     9        0.000000        0.195819         1
         3         2         1        11     9      180.000000       15.487036         2
         3         2         1        11     9        0.000000        0.090487         3
         3         2         1        11     9      180.000000       -0.416735         4
         3         6         5         4     9        0.000000        0.136601         1
         3         6         5         4     9      180.000000       11.601559         2
         3         6         5         4     9        0.000000       -0.462910         3
         3         6         5         4     9      180.000000       -0.223606         4
         3         6         5        10     9        0.000000       -0.339666         1
         3         6         5        10     9      180.000000       10.121464         2
         3         6         5        10     9        0.000000        0.059834         3
         3         6         5        10     9      180.000000       -0.273739         4
         3         6         7         8     9        0.000000        0.547165         1
         3         6         7         8     9      180.000000       16.540471         2
         3         6         7         8     9        0.000000        0.381745         3
         3         6         7         8     9      180.000000       -0.359247         4
         3        12        13        14     9        0.000000        0.207164         1
         3        12        13        14     9      180.000000       15.165793         2
         3        12        13        14     9        0.000000       -0.149140         3
         3        12        13        14     9      180.000000       -0.108339         4
         3        12        13        35     9        0.000000       -0.066226         1
         3        12        13        35     9      180.000000       12.886786         2
         3        12        13        35     9        0.000000       -0.194391         3
         3        12        13        35     9      180.000000        0.215299         4
         3        12        15        16     9        0.000000        0.207164         1
         3        12        15        16     9      180.000000       15.165793         2
         3        12        15        16     9        0.000000       -0.149140         3
         3        12        15        16     9      180.000000       -0.108339         4
         3        12        15        37     9        0.000000       -0.066226         1
         3        12        15        37     9      180.000000       12.886786         2
         3        12        15        37     9        0.000000       -0.194391         3
         3        12        15        37     9      180.000000        0.215299         4
         4         1         2        30     9        0.000000       -0.062430         1
         4         1         2        30     9      180.000000       11.927328         2
         4         1         2        30     9        0.000000       -0.431705         3
         4         1         2        30     9      180.000000        0.110490         4
         4         1        11        18     9        0.000000       -0.167871         1
         4         1        11        18     9      180.000000        3.526327         2
         4         1        11        18     9        0.000000       -0.356690         3
         4         1        11        18     9      180.000000        0.139573         4
         4         1        11        34     9        0.000000       -0.457731         1
         4         1        11        34     9      180.000000        3.512783         2
         4         1        11        34     9        0.000000       -0.099181         3
         4         1        11        34     9      180.000000        0.073473         4
         4         5         6         7     9        0.000000        0.337417         1
         4         5         6         7     9      180.000000       11.181904         2
         4         5         6         7     9        0.000000       -0.066177         3
         4         5         6         7     9      180.000000       -0.252704         4
         4         5        10         9     9        0.000000       -0.023334         1
         4         5        10         9     9      180.000000       18.424194         2
         4         5        10         9     9        0.000000        0.154347         3
         4         5        10         9     9      180.000000       -0.275637         4
         5         4         1        11     9        0.000000        0.246511         1
         5         4         1        11     9      180.000000       19.522853         2
         5         4         1        11     9        0.000000        0.055608         3
         5         4         1        11     9      180.000000       -0.772829         4
         5         6         3        12     9        0.000000        0.148633         1
         5         6         3        12     9      180.000000       12.614120         2
         5         6         3        12     9        0.000000       -0.006044         3
         5         6         3        12     9      180.000000       -0.466084         4
         5         6         7         8     9        0.000000        0.172539         1
         5         6         7         8     9      180.000000       16.817876         2
         5         6         7         8     9        0.000000       -0.048042         3
         5         6         7         8     9      180.000000       -0.239301         4
         5        10         9         8     9        0.000000       -0.161990         1
         5        10         9         8     9      180.000000       25.805864         2
         5        10         9         8     9        0.000000       -0.989158         3
         5        10         9         8     9      180.000000       -0.201960         4
         5        10         9        33     9        0.000000        0.808513         1
         5        10         9        33     9      180.000000       23.535886         2
         5        10         9        33     9        0.000000        0.064004         3
         5        10         9        33     9      180.000000       -0.475717         4
         6         3         2        30     9        0.000000        0.182294         1
         6         3         2        30     9      180.000000       15.796543         2
         6         3         2        30     9        0.000000       -0.326275         3
         6         3         2        30     9      180.000000        0.176074         4
         6         3        12        13     9        0.000000       -0.124176         1
         6         3        12        13     9      180.000000        4.018161         2
         6         3        12        13     9        0.000000       -0.163463         3
         6         3        12        13     9      180.000000        0.745345         4
         6         3        12        15     9        0.000000       -0.124176         1
         6         3        12        15     9      180.000000        4.018161         2
         6         3        12        15     9        0.000000       -0.163463         3
         6         3        12        15     9      180.000000        0.745345         4
         6         5         4        31     9        0.000000       -0.168579         1
         6         5         4        31     9      180.000000       10.564597         2
         6         5         4        31     9        0.000000       -0.261929         3
         6         5         4        31     9      180.000000       -0.006921         4
         6         5        10         9     9        0.000000       -0.113243         1
         6         5        10         9     9      180.000000       16.457234         2
         6         5        10         9     9        0.000000        0.035209         3
         6         5        10         9     9      180.000000       -0.227308         4
         6         7         8         9     9        0.000000        0.104497         1
         6         7         8         9     9      180.000000       25.053764         2
         6         7         8         9     9        0.000000       -0.955082         3
         6         7         8         9     9      180.000000       -0.160012         4
         6         7         8        32     9        0.000000        0.726539         1
         6         7         8        32     9      180.000000       22.911942         2
         6         7         8        32     9        0.000000        0.102107         3
         6         7         8        32     9      180.000000       -0.545266         4
         7         6         3        12     9        0.000000       -0.510928         1
         7         6         3        12     9      180.000000       12.384239         2
         7         6         3        12     9        0.000000       -0.132188         3
         7         6         3        12     9      180.000000       -0.482571         4
         7         6         5        10     9        0.000000        0.152873         1
         7         6         5        10     9      180.000000       11.072213         2
         7         6         5        10     9        0.000000        0.155830         3
         7         6         5        10     9      180.000000       -0.400050         4
         7         8         9        10     9        0.000000       -0.713203         1
         7         8         9        10     9      180.000000       11.742392         2
         7         8         9        10     9        0.000000       -0.552181         3
         7         8         9        10     9      180.000000       -0.521535         4
         7         8         9        33     9        0.000000       -0.026031         1
         7         8         9        33     9      180.000000        9.508286         2
         7         8         9        33     9        0.000000       -0.255749         3
         7         8         9        33     9      180.000000       -0.134502         4
        10         5         4        31     9        0.000000        0.016940         1
        10         5         4        31     9      180.000000       11.980067         2
        10         5         4        31     9        0.000000       -0.349905         3
        10         5         4        31     9      180.000000        0.012863         4
        10         9         8        32     9        0.000000       -0.199022         1
        10         9         8        32     9      180.000000        9.267615         2
        10         9         8        32     9        0.000000       -0.318099         3
        10         9         8        32     9      180.000000       -0.090079         4
        11         1         2        30     9        0.000000       -0.052764         1
        11         1         2        30     9      180.000000       14.029721         2
        11         1         2        30     9        0.000000       -0.046524         3
        11         1         2        30     9      180.000000        0.147453         4
        11         1         4        31     9        0.000000       -0.006423         1
        11         1         4        31     9      180.000000       15.238159         2
        11         1         4        31     9        0.000000       -0.072526         3
        11         1         4        31     9      180.000000        0.161232         4
        11        18        19        20     9        0.000000        0.186749         1
        11        18        19        20     9      180.000000       16.683917         2
        11        18        19        20     9        0.000000        0.179116         3
        11        18        19        20     9      180.000000       -0.684725         4
        11        18        19        39     9        0.000000       -0.299543         1
        11        18        19        39     9      180.000000       14.371219         2
        11        18        19        39     9        0.000000       -0.253273         3
        11        18        19        39     9      180.000000        0.145399         4
        11        18        23        22     9        0.000000        0.142199         1
        11        18        23        22     9      180.000000       15.897986         2
        11        18        23        22     9        0.000000        0.030266         3
        11        18        23        22     9      180.000000       -0.460852         4
        11        18        23        24     9        0.000000       -0.927876         1
        11        18        23        24     9      180.000000       13.516794         2
        11        18        23        24     9        0.000000       -0.073923         3
        11        18        23        24     9      180.000000       -0.622706         4
        12         3         2        30     9        0.000000        0.050512         1
        12         3         2        30     9      180.000000       15.179835         2
        12         3         2        30     9        0.000000       -0.134242         3
        12         3         2        30     9      180.000000        0.056950         4
        12        13        14        17     9        0.000000        0.033457         1
        12        13        14        17     9      180.000000       18.509329         2
        12        13        14        17     9        0.000000       -1.496883         3
        12        13        14        17     9      180.000000       -0.335555         4
        12        13        14        36     9        0.000000       -0.024888         1
        12        13        14        36     9      180.000000       14.711972         2
        12        13        14        36     9        0.000000       -0.469125         3
        12        13        14        36     9      180.000000        0.096098         4
        12        15        16        17     9        0.000000        0.033457         1
        12        15        16        17     9      180.000000       18.509329         2
        12        15        16        17     9        0.000000       -1.496883         3
        12        15        16        17     9      180.000000       -0.335555         4
        12        15        16        38     9        0.000000       -0.024887         1
        12        15        16        38     9      180.000000       14.711971         2
        12        15        16        38     9        0.000000       -0.469125         3
        12        15        16        38     9      180.000000        0.096098         4
        13        12        15        16     9        0.000000       -0.089196         1
        13        12        15        16     9      180.000000       18.567338         2
        13        12        15        16     9        0.000000       -1.298798         3
        13        12        15        16     9      180.000000       -0.363487         4
        13        12        15        37     9        0.000000        0.054038         1
        13        12        15        37     9      180.000000       14.267695         2
        13        12        15        37     9        0.000000       -0.559451         3
        13        12        15        37     9      180.000000        0.098553         4
        13        14        17        16     9        0.000000       -0.070128         1
        13        14        17        16     9      180.000000       18.563050         2
        13        14        17        16     9        0.000000       -1.390416         3
        13        14        17        16     9      180.000000       -0.365983         4
        13        14        17        28     9        0.000000        0.026552         1
        13        14        17        28     9      180.000000       15.054584         2
        13        14        17        28     9        0.000000       -0.216046         3
        13        14        17        28     9      180.000000       -0.095009         4
        14        13        12        15     9        0.000000       -0.089196         1
        14        13        12        15     9      180.000000       18.567338         2
        14        13        12        15     9        0.000000       -1.298798         3
        14        13        12        15     9      180.000000       -0.363487         4
        14        17        16        15     9        0.000000       -0.070128         1
        14        17        16        15     9      180.000000       18.563050         2
        14        17        16        15     9        0.000000       -1.390416         3
        14        17        16        15     9      180.000000       -0.365983         4
        14        17        16        38     9        0.000000       -0.047876         1
        14        17        16        38     9      180.000000       14.669507         2
        14        17        16        38     9        0.000000       -0.582284         3
        14        17        16        38     9      180.000000        0.002008         4
        14        17        28        29     9        0.000000       -0.069691         1
        14        17        28        29     9      180.000000        0.735350         2
        14        17        28        29     9        0.000000        0.011294         3
        14        17        28        29     9      180.000000        0.214322         4
        14        17        28        45     9        0.000000        0.012262         1
        14        17        28        45     9      180.000000       -0.034934         2
        14        17        28        45     9        0.000000        0.013013         3
        14        17        28        45     9      180.000000       -0.006875         4
        14        17        28        46     9        0.000000        0.012262         1
        14        17        28        46     9      180.000000       -0.034934         2
        14        17        28        46     9        0.000000        0.013013         3
        14        17        28        46     9      180.000000       -0.006875         4
        15        12        13        35     9        0.000000        0.054038         1
        15        12        13        35     9      180.000000       14.267695         2
        15        12        13        35     9        0.000000       -0.559451         3
        15        12        13        35     9      180.000000        0.098553         4
        15        16        17        28     9        0.000000        0.026552         1
        15        16        17        28     9      180.000000       15.054584         2
        15        16        17        28     9        0.000000       -0.216046         3
        15        16        17        28     9      180.000000       -0.095009         4
        16        17        14        36     9        0.000000       -0.047876         1
        16        17        14        36     9      180.000000       14.669507         2
        16        17        14        36     9        0.000000       -0.582284         3
        16        17        14        36     9      180.000000        0.002008         4
        16        17        28        29     9        0.000000       -0.069691         1
        16        17        28        29     9      180.000000        0.735350         2
        16        17        28        29     9        0.000000        0.011294         3
        16        17        28        29     9      180.000000        0.214322         4
        16        17        28        45     9        0.000000        0.012262         1
        16        17        28        45     9      180.000000       -0.034934         2
        16        17        28        45     9        0.000000        0.013013         3
        16        17        28        45     9      180.000000       -0.006875         4
        16        17        28        46     9        0.000000        0.012262         1
        16        17        28        46     9      180.000000       -0.034934         2
        16        17        28        46     9        0.000000        0.013013         3
        16        17        28        46     9      180.000000       -0.006875         4
        17        14        13        35     9        0.000000        0.028610         1
        17        14        13        35     9      180.000000       14.770911         2
        17        14        13        35     9        0.000000       -0.665013         3
        17        14        13        35     9      180.000000        0.143387         4
        17        16        15        37     9        0.000000        0.028610         1
        17        16        15        37     9      180.000000       14.770911         2
        17        16        15        37     9        0.000000       -0.665013         3
        17        16        15        37     9      180.000000        0.143387         4
        17        28        29        47     9        0.000000       -0.091924         1
        17        28        29        47     9      180.000000        0.043910         2
        17        28        29        47     9        0.000000        0.699341         3
        17        28        29        47     9      180.000000        0.018913         4
        17        28        29        48     9        0.000000       -0.091924         1
        17        28        29        48     9      180.000000        0.043910         2
        17        28        29        48     9        0.000000        0.699341         3
        17        28        29        48     9      180.000000        0.018913         4
        17        28        29        49     9        0.000000       -0.091924         1
        17        28        29        49     9      180.000000        0.043910         2
        17        28        29        49     9        0.000000        0.699341         3
        17        28        29        49     9      180.000000        0.018913         4
        18        19        20        21     9        0.000000        0.319722         1
        18        19        20        21     9      180.000000       22.949103         2
        18        19        20        21     9        0.000000       -0.741217         3
        18        19        20        21     9      180.000000        0.175923         4
        18        23        22        21     9        0.000000       -0.049559         1
        18        23        22        21     9      180.000000       18.886873         2
        18        23        22        21     9        0.000000       -2.021566         3
        18        23        22        21     9      180.000000       -0.405198         4
        18        23        22        41     9        0.000000        0.229105         1
        18        23        22        41     9      180.000000       14.976782         2
        18        23        22        41     9        0.000000       -0.507226         3
        18        23        22        41     9      180.000000        0.085320         4
        18        23        24        25     9        0.000000       -1.334284         1
        18        23        24        25     9      180.000000        0.814377         2
        18        23        24        25     9        0.000000        0.785313         3
        18        23        24        25     9      180.000000       -0.187784         4
        18        23        24        26     9        0.000000       -1.334284         1
        18        23        24        26     9      180.000000        0.814377         2
        18        23        24        26     9        0.000000        0.785313         3
        18        23        24        26     9      180.000000       -0.187784         4
        18        23        24        27     9        0.000000        3.729087         1
        18        23        24        27     9      180.000000       -2.195928         2
        18        23        24        27     9        0.000000        0.799428         3
        18        23        24        27     9      180.000000        0.054293         4
        19        18        11        34     9        0.000000       -1.272588         1
        19        18        11        34     9      180.000000        2.989698         2
        19        18        11        34     9        0.000000       -0.423806         3
        19        18        11        34     9      180.000000        0.040258         4
        19        18        23        22     9        0.000000       -0.037262         1
        19        18        23        22     9      180.000000       14.380144         2
        19        18        23        22     9        0.000000       -0.900345         3
        19        18        23        22     9      180.000000       -0.221952         4
        19        18        23        24     9        0.000000        0.366401         1
        19        18        23        24     9      180.000000       11.025740         2
        19        18        23        24     9        0.000000        0.150288         3
        19        18        23        24     9      180.000000       -0.363523         4
        19        20        21        22     9        0.000000        0.177563         1
        19        20        21        22     9      180.000000       22.523862         2
        19        20        21        22     9        0.000000       -0.901752         3
        19        20        21        22     9      180.000000       -0.193725         4
        19        20        21        40     9        0.000000        0.988694         1
        19        20        21        40     9      180.000000       20.417146         2
        19        20        21        40     9        0.000000        0.253449         3
        19        20        21        40     9      180.000000       -0.430136         4
        20        19        18        23     9        0.000000       -0.510166         1
        20        19        18        23     9      180.000000       14.375530         2
        20        19        18        23     9        0.000000       -0.595358         3
        20        19        18        23     9      180.000000       -0.489937         4
        20        21        22        23     9        0.000000       -0.220826         1
        20        21        22        23     9      180.000000       18.549630         2
        20        21        22        23     9        0.000000       -1.222990         3
        20        21        22        23     9      180.000000       -0.581963         4
        20        21        22        41     9        0.000000        0.066372         1
        20        21        22        41     9      180.000000       14.573595         2
        20        21        22        41     9        0.000000       -0.318036         3
        20        21        22        41     9      180.000000       -0.017204         4
        21        20        19        39     9        0.000000        1.115355         1
        21        20        19        39     9      180.000000       20.962220         2
        21        20        19        39     9        0.000000        0.247396         3
        21        20        19        39     9      180.000000       -0.016300         4
        21        22        23        24     9        0.000000        0.192524         1
        21        22        23        24     9      180.000000       13.995355         2
        21        22        23        24     9        0.000000        0.189775         3
        21        22        23        24     9      180.000000       -0.443899         4
        22        23        24        25     9        0.000000       -0.090527         1
        22        23        24        25     9      180.000000        0.655865         2
        22        23        24        25     9        0.000000       -0.321290         3
        22        23        24        25     9      180.000000       -0.045698         4
        22        23        24        26     9        0.000000       -0.090526         1
        22        23        24        26     9      180.000000        0.655865         2
        22        23        24        26     9        0.000000       -0.321290         3
        22        23        24        26     9      180.000000       -0.045698         4
        22        23        24        27     9        0.000000        0.119865         1
        22        23        24        27     9      180.000000       -0.559451         2
        22        23        24        27     9        0.000000       -0.551232         3
        22        23        24        27     9      180.000000        0.255503         4
        23        18        11        34     9        0.000000        2.440458         1
        23        18        11        34     9      180.000000        3.205589         2
        23        18        11        34     9        0.000000       -0.727467         3
        23        18        11        34     9      180.000000        0.027702         4
        23        18        19        39     9        0.000000        0.058995         1
        23        18        19        39     9      180.000000       12.296400         2
        23        18        19        39     9        0.000000       -0.329284         3
        23        18        19        39     9      180.000000        0.069067         4
        23        22        21        40     9        0.000000        0.008007         1
        23        22        21        40     9      180.000000       14.871301         2
        23        22        21        40     9        0.000000       -0.365300         3
        23        22        21        40     9      180.000000       -0.122425         4
        23        24        27        42     9        0.000000        0.134671         1
        23        24        27        42     9      180.000000       -0.180390         2
        23        24        27        42     9        0.000000        0.326690         3
        23        24        27        42     9      180.000000       -0.016353         4
        23        24        27        43     9        0.000000        0.134671         1
        23        24        27        43     9      180.000000       -0.180390         2
        23        24        27        43     9        0.000000        0.326690         3
        23        24        27        43     9      180.000000       -0.016353         4
        23        24        27        44     9        0.000000        0.134671         1
        23        24        27        44     9      180.000000       -0.180390         2
        23        24        27        44     9        0.000000        0.326690         3
        23        24        27        44     9      180.000000       -0.016353         4
        24        23        22        41     9        0.000000       -0.032266         1
        24        23        22        41     9      180.000000       12.082713         2
        24        23        22        41     9        0.000000       -0.269976         3
        24        23        22        41     9      180.000000        0.014566         4
        25        24        27        42     9        0.000000       -0.020339         1
        25        24        27        42     9      180.000000       -0.042566         2
        25        24        27        42     9        0.000000        0.357266         3
        25        24        27        42     9      180.000000        0.004050         4
        25        24        27        43     9        0.000000       -0.020339         1
        25        24        27        43     9      180.000000       -0.042566         2
        25        24        27        43     9        0.000000        0.357266         3
        25        24        27        43     9      180.000000        0.004050         4
        25        24        27        44     9        0.000000       -0.020339         1
        25        24        27        44     9      180.000000       -0.042566         2
        25        24        27        44     9        0.000000        0.357266         3
        25        24        27        44     9      180.000000        0.004050         4
        26        24        27        42     9        0.000000       -0.020339         1
        26        24        27        42     9      180.000000       -0.042565         2
        26        24        27        42     9        0.000000        0.357266         3
        26        24        27        42     9      180.000000        0.004050         4
        26        24        27        43     9        0.000000       -0.020339         1
        26        24        27        43     9      180.000000       -0.042565         2
        26        24        27        43     9        0.000000        0.357266         3
        26        24        27        43     9      180.000000        0.004050         4
        26        24        27        44     9        0.000000       -0.020339         1
        26        24        27        44     9      180.000000       -0.042565         2
        26        24        27        44     9        0.000000        0.357266         3
        26        24        27        44     9      180.000000        0.004050         4
        28        17        14        36     9        0.000000       -0.225920         1
        28        17        14        36     9      180.000000       12.694689         2
        28        17        14        36     9        0.000000       -0.396098         3
        28        17        14        36     9      180.000000        0.247444         4
        28        17        16        38     9        0.000000       -0.225921         1
        28        17        16        38     9      180.000000       12.694688         2
        28        17        16        38     9        0.000000       -0.396098         3
        28        17        16        38     9      180.000000        0.247443         4
        32         8         9        33     9        0.000000       -0.431715         1
        32         8         9        33     9      180.000000        6.869070         2
        32         8         9        33     9        0.000000       -0.569257         3
        32         8         9        33     9      180.000000        0.186659         4
        35        13        14        36     9        0.000000       -0.160490         1
        35        13        14        36     9      180.000000       12.367748         2
        35        13        14        36     9        0.000000       -0.718640         3
        35        13        14        36     9      180.000000        0.306241         4
        37        15        16        38     9        0.000000       -0.160489         1
        37        15        16        38     9      180.000000       12.367748         2
        37        15        16        38     9        0.000000       -0.718640         3
        37        15        16        38     9      180.000000        0.306241         4
        40        21        22        41     9        0.000000       -0.049751         1
        40        21        22        41     9      180.000000       11.944933         2
        40        21        22        41     9        0.000000       -0.710210         3
        40        21        22        41     9      180.000000        0.205813         4
        45        28        29        47     9        0.000000       -0.006248         1
        45        28        29        47     9      180.000000        0.016478         2
        45        28        29        47     9        0.000000        0.551354         3
        45        28        29        47     9      180.000000       -0.011549         4
        45        28        29        48     9        0.000000       -0.006248         1
        45        28        29        48     9      180.000000        0.016478         2
        45        28        29        48     9        0.000000        0.551354         3
        45        28        29        48     9      180.000000       -0.011549         4
        45        28        29        49     9        0.000000       -0.006248         1
        45        28        29        49     9      180.000000        0.016478         2
        45        28        29        49     9        0.000000        0.551354         3
        45        28        29        49     9      180.000000       -0.011549         4
        46        28        29        47     9        0.000000       -0.006248         1
        46        28        29        47     9      180.000000        0.016478         2
        46        28        29        47     9        0.000000        0.551354         3
        46        28        29        47     9      180.000000       -0.011549         4
        46        28        29        48     9        0.000000       -0.006248         1
        46        28        29        48     9      180.000000        0.016478         2
        46        28        29        48     9        0.000000        0.551354         3
        46        28        29        48     9      180.000000       -0.011549         4
        46        28        29        49     9        0.000000       -0.006248         1
        46        28        29        49     9      180.000000        0.016478         2
        46        28        29        49     9        0.000000        0.551354         3
        46        28        29        49     9      180.000000       -0.011549         4

[ dihedrals ] ; impropers
;       ai        aj        ak        al funct           phase               k        pn
         3         2         6        12     4      180.000000        0.518029         2
         3         6        12         2     4      180.000000        0.518029         2
         3        12         2         6     4      180.000000        0.518029         2
         8         7         9        32     4      180.000000        4.409855         2
         8         9        32         7     4      180.000000        4.409855         2
         8        32         7         9     4      180.000000        4.409855         2
         9         8        10        33     4      180.000000        4.162411         2
         9        10        33         8     4      180.000000        4.162411         2
         9        33         8        10     4      180.000000        4.162411         2
        19        18        20        39     4      180.000000        3.547250         2
        19        20        39        18     4      180.000000        3.547250         2
        19        39        18        20     4      180.000000        3.547250         2
        21        20        22        40     4      180.000000        3.347116         2
        21        22        40        20     4      180.000000        3.347116         2
        21        40        20        22     4      180.000000        3.347116         2

[ pairs ]
;       ai        aj funct
         1         6     1
         1        10     1
         1        12     1
         1        19     1
         1        23     1
         2         5     1
         2         7     1
         2        13     1
         2        15     1
         2        18     1
         2        31     1
         2        34     1
         3         4     1
         3         8     1
         3        10     1
         3        11     1
         3        14     1
         3        16     1
         3        35     1
         3        37     1
         4         7     1
         4         9     1
         4        18     1
         4        30     1
         4        34     1
         5         8     1
         5        11     1
         5        12     1
         5        33     1
         6         9     1
         6        13     1
         6        15     1
         6        30     1
         6        31     1
         6        32     1
         7        10     1
         7        12     1
         7        33     1
        10        31     1
        10        32     1
        11        20     1
        11        22     1
        11        24     1
        11        30     1
        11        31     1
        11        39     1
        12        17     1
        12        30     1
        12        36     1
        12        38     1
        13        16     1
        13        28     1
        13        37     1
        14        15     1
        14        29     1
        14        38     1
        14        45     1
        14        46     1
        15        28     1
        15        35     1
        16        29     1
        16        36     1
        16        45     1
        16        46     1
        17        35     1
        17        37     1
        17        47     1
        17        48     1
        17        49     1
        18        21     1
        18        25     1
        18        26     1
        18        27     1
        18        41     1
        19        22     1
        19        24     1
        19        34     1
        19        40     1
        20        23     1
        20        41     1
        21        24     1
        21        39     1
        22        25     1
        22        26     1
        22        27     1
        23        34     1
        23        39     1
        23        40     1
        23        42     1
        23        43     1
        23        44     1
        24        41     1
        25        42     1
        25        43     1
        25        44     1
        26        42     1
        26        43     1
        26        44     1
        28        36     1
        28        38     1
        32        33     1
        35        36     1
        37        38     1
        40        41     1
        45        47     1
        45        48     1
        45        49     1
        46        47     1
        46        48     1
        46        49     1
