; ITP file created by ByteFF-ML, 2026-02-21 07:42:32.339922

[ atomtypes ]
;name           bonded.type        at.num        mass        charge   ptype           sigma         epsilon
 c0bf                                   6      0.0000       0.00000       A     3.31169e-01     4.10903e-01
 c1bf                                   6      0.0000       0.00000       A     3.31696e-01     4.13508e-01
 c2bf                                   6      0.0000       0.00000       A     3.31534e-01     4.11219e-01
 c3bf                                   6      0.0000       0.00000       A     3.31572e-01     4.14462e-01
 c4bf                                   6      0.0000       0.00000       A     3.31387e-01     4.12836e-01
 c5bf                                   6      0.0000       0.00000       A     3.31582e-01     4.11652e-01
 n6bf                                   7      0.0000       0.00000       A     3.38246e-01     3.93082e-01
 c7bf                                   6      0.0000       0.00000       A     3.31514e-01     4.13144e-01
 c8bf                                   6      0.0000       0.00000       A     3.31562e-01     4.13392e-01
 n9bf                                   7      0.0000       0.00000       A     3.38456e-01     3.92772e-01
 c10bf                                  6      0.0000       0.00000       A     3.31488e-01     4.09132e-01
 c11bf                                  6      0.0000       0.00000       A     3.31482e-01     4.13240e-01
 c12bf                                  6      0.0000       0.00000       A     3.31556e-01     4.12712e-01
 c13bf                                  6      0.0000       0.00000       A     3.31407e-01     4.11017e-01
 c14bf                                  6      0.0000       0.00000       A     3.31556e-01     4.12712e-01
 c15bf                                  6      0.0000       0.00000       A     3.31482e-01     4.13240e-01
 n16bf                                  7      0.0000       0.00000       A     3.27929e-01     6.45227e-01
 c17bf                                  6      0.0000       0.00000       A     3.31581e-01     4.12886e-01
 c18bf                                  6      0.0000       0.00000       A     3.31706e-01     4.11679e-01
 n19bf                                  7      0.0000       0.00000       A     3.38344e-01     3.92967e-01
 c20bf                                  6      0.0000       0.00000       A     3.31482e-01     4.12140e-01
 c21bf                                  6      0.0000       0.00000       A     3.31194e-01     4.12903e-01
 c22bf                                  6      0.0000       0.00000       A     3.31298e-01     4.15822e-01
 s23bf                                 16      0.0000       0.00000       A     4.05645e-01     2.55729e-01
 o24bf                                  8      0.0000       0.00000       A     3.04857e-01     6.11370e-01
 o25bf                                  8      0.0000       0.00000       A     3.04857e-01     6.11370e-01
 c26bf                                  6      0.0000       0.00000       A     3.39611e-01     4.49156e-01
 n27bf                                  7      0.0000       0.00000       A     3.36946e-01     4.67185e-01
 h28bf                                  1      0.0000       0.00000       A     2.62399e-01     6.76733e-02
 h29bf                                  1      0.0000       0.00000       A     2.62381e-01     6.75967e-02
 h30bf                                  1      0.0000       0.00000       A     2.53506e-01     6.72855e-02
 h31bf                                  1      0.0000       0.00000       A     2.53506e-01     6.72855e-02
 h32bf                                  1      0.0000       0.00000       A     2.62524e-01     6.76877e-02
 h33bf                                  1      0.0000       0.00000       A     2.62465e-01     6.72616e-02
 h34bf                                  1      0.0000       0.00000       A     2.62465e-01     6.72616e-02
 h35bf                                  1      0.0000       0.00000       A     2.62524e-01     6.76877e-02
 h36bf                                  1      0.0000       0.00000       A     1.10952e-01     4.04428e-02
 h37bf                                  1      0.0000       0.00000       A     2.53583e-01     6.80915e-02
 h38bf                                  1      0.0000       0.00000       A     2.53644e-01     6.69998e-02
 h39bf                                  1      0.0000       0.00000       A     2.62744e-01     6.79622e-02
 h40bf                                  1      0.0000       0.00000       A     2.42021e-01     8.71597e-02
 h41bf                                  1      0.0000       0.00000       A     2.42021e-01     8.71597e-02
 h42bf                                  1      0.0000       0.00000       A     2.42021e-01     8.71597e-02
 h43bf                                  1      0.0000       0.00000       A     1.10532e-01     4.05322e-02
 h44bf                                  1      0.0000       0.00000       A     1.10532e-01     4.05322e-02

[ moleculetype ]
;name             nrexcl
 49                    3

[ atoms ]
;       nr            type      resi   res      atom      cgnr      charge          mass ; qtot
         1            c0bf         1   UNL        c0         1     0.02761       12.0110 ; qtot    0.028
         2            c1bf         1   UNL        c1         2    -0.14199       12.0110 ; qtot   -0.114
         3            c2bf         1   UNL        c2         3     0.30796       12.0110 ; qtot    0.194
         4            c3bf         1   UNL        c3         4    -0.12989       12.0110 ; qtot    0.064
         5            c4bf         1   UNL        c4         5     0.25875       12.0110 ; qtot    0.322
         6            c5bf         1   UNL        c5         6     0.21874       12.0110 ; qtot    0.541
         7            n6bf         1   UNL        n6         7    -0.62219       14.0070 ; qtot   -0.081
         8            c7bf         1   UNL        c7         8     0.29317       12.0110 ; qtot    0.212
         9            c8bf         1   UNL        c8         9     0.29405       12.0110 ; qtot    0.506
        10            n9bf         1   UNL        n9        10    -0.62285       14.0070 ; qtot   -0.117
        11           c10bf         1   UNL       c10        11    -0.06716       12.0110 ; qtot   -0.184
        12           c11bf         1   UNL       c11        12    -0.05658       12.0110 ; qtot   -0.240
        13           c12bf         1   UNL       c12        13    -0.18504       12.0110 ; qtot   -0.425
        14           c13bf         1   UNL       c13        14     0.27920       12.0110 ; qtot   -0.146
        15           c14bf         1   UNL       c14        15    -0.18504       12.0110 ; qtot   -0.331
        16           c15bf         1   UNL       c15        16    -0.05658       12.0110 ; qtot   -0.388
        17           n16bf         1   UNL       n16        17    -0.96404       14.0070 ; qtot   -1.352
        18           c17bf         1   UNL       c17        18     0.35358       12.0110 ; qtot   -0.998
        19           c18bf         1   UNL       c18        19     0.27846       12.0110 ; qtot   -0.720
        20           n19bf         1   UNL       n19        20    -0.60355       14.0070 ; qtot   -1.323
        21           c20bf         1   UNL       c20        21     0.28639       12.0110 ; qtot   -1.037
        22           c21bf         1   UNL       c21        22    -0.03902       12.0110 ; qtot   -1.076
        23           c22bf         1   UNL       c22        23    -0.27733       12.0110 ; qtot   -1.353
        24           s23bf         1   UNL       s23        24     0.99436       32.0670 ; qtot   -0.359
        25           o24bf         1   UNL       o24        25    -0.51400       15.9990 ; qtot   -0.873
        26           o25bf         1   UNL       o25        26    -0.51400       15.9990 ; qtot   -1.387
        27           c26bf         1   UNL       c26        27    -0.29607       12.0110 ; qtot   -1.683
        28           n27bf         1   UNL       n27        28    -1.04160       14.0070 ; qtot   -2.725
        29           h28bf         1   UNL       h28        29     0.14328        1.0080 ; qtot   -2.581
        30           h29bf         1   UNL       h29        30     0.12777        1.0080 ; qtot   -2.454
        31           h30bf         1   UNL       h30        31     0.03158        1.0080 ; qtot   -2.422
        32           h31bf         1   UNL       h31        32     0.03160        1.0080 ; qtot   -2.390
        33           h32bf         1   UNL       h32        33     0.12096        1.0080 ; qtot   -2.269
        34           h33bf         1   UNL       h33        34     0.11616        1.0080 ; qtot   -2.153
        35           h34bf         1   UNL       h34        35     0.11616        1.0080 ; qtot   -2.037
        36           h35bf         1   UNL       h35        36     0.12096        1.0080 ; qtot   -1.916
        37           h36bf         1   UNL       h36        37     0.51181        1.0080 ; qtot   -1.404
        38           h37bf         1   UNL       h37        38     0.03589        1.0080 ; qtot   -1.368
        39           h38bf         1   UNL       h38        39     0.03700        1.0080 ; qtot   -1.331
        40           h39bf         1   UNL       h39        40     0.15079        1.0080 ; qtot   -1.181
        41           h40bf         1   UNL       h40        41     0.10467        1.0080 ; qtot   -1.076
        42           h41bf         1   UNL       h41        42     0.10467        1.0080 ; qtot   -0.971
        43           h42bf         1   UNL       h42        43     0.10467        1.0080 ; qtot   -0.867
        44           h43bf         1   UNL       h43        44     0.43336        1.0080 ; qtot   -0.433
        45           h44bf         1   UNL       h44        45     0.43333        1.0080 ; qtot   -0.000

[ bonds ]
;       ai        aj funct               r               k
         1         4     1        0.138589   331490.219629
         1         6     1        0.143424   237832.360254
         1        11     1        0.148305   215149.584668
         2         3     1        0.138622   325678.790723
         2         5     1        0.141521   284459.010498
         2        29     1        0.108434   324306.120020
         3         4     1        0.142352   251288.271777
         3        17     1        0.140593   260287.089453
         4        30     1        0.108425   321462.077686
         5         6     1        0.143377   223875.308496
         5        10     1        0.136675   270922.835840
         6         7     1        0.136376   268524.084082
         7         8     1        0.131881   374103.202393
         8         9     1        0.142216   238192.510107
         8        31     1        0.108820   315940.162988
         9        10     1        0.131846   380187.239941
         9        32     1        0.108836   315483.763770
        11        12     1        0.140524   283697.212988
        11        16     1        0.140524   283697.212988
        12        13     1        0.139262   330747.677100
        12        33     1        0.108548   320262.523047
        13        14     1        0.140759   279968.437500
        13        34     1        0.108704   315524.291162
        14        15     1        0.140759   279968.437500
        14        28     1        0.140021   283159.401465
        15        16     1        0.139262   330747.651563
        15        35     1        0.108704   315524.291162
        16        36     1        0.108548   320262.471973
        17        18     1        0.138908   287909.073975
        17        37     1        0.101485   406811.259766
        18        19     1        0.141520   257222.712939
        18        23     1        0.141314   265581.366357
        19        20     1        0.133244   341315.111719
        19        38     1        0.108642   319937.154736
        20        21     1        0.133977   313656.583594
        21        22     1        0.139506   299656.731641
        21        39     1        0.108702   319547.177539
        22        23     1        0.139402   313134.068799
        22        40     1        0.108446   326160.114160
        23        24     1        0.180715   124483.627490
        24        25     1        0.147464   495020.215039
        24        26     1        0.147464   495020.215039
        24        27     1        0.180772   140787.539600
        27        41     1        0.109028   319230.108789
        27        42     1        0.109028   319230.108789
        27        43     1        0.109028   319230.108789
        28        44     1        0.101279   418023.429785
        28        45     1        0.101279   418023.429785

[ angles ]
;       ai        aj        ak funct           theta             cth
         1         4         3     1      122.386673      712.308635
         1         4        30     1      118.693504      414.669826
         1         6         5     1      118.926697      694.181692
         1         6         7     1      120.356773      430.515124
         1        11        12     1      121.094994      474.031412
         1        11        16     1      121.094994      474.031412
         2         3         4     1      119.328163      642.905028
         2         3        17     1      121.254745      492.361087
         2         5         6     1      120.561111      663.910960
         2         5        10     1      118.281189      431.308051
         3         2         5     1      120.257889      537.525444
         3         2        29     1      121.917053      423.581575
         3         4        30     1      118.503174      446.851340
         3        17        18     1      126.297546      421.362209
         3        17        37     1      115.426346      433.799388
         4         1         6     1      118.333862      533.367364
         4         1        11     1      119.180016      476.696784
         4         3        17     1      119.251770      541.101022
         5         2        29     1      117.843239      439.647833
         5         6         7     1      120.225365      782.040649
         5        10         9     1      116.661819      559.934704
         6         1        11     1      122.643066      446.572954
         6         5        10     1      121.313904      706.695897
         6         7         8     1      117.602097      602.197982
         7         8         9     1      122.256546      732.863901
         7         8        31     1      117.339157      362.478934
         8         9        10     1      122.299545      738.442163
         8         9        32     1      120.145851      429.987368
         9         8        31     1      120.142014      430.475797
        10         9        32     1      117.380966      342.428057
        11        12        13     1      121.441673      666.572821
        11        12        33     1      119.326927      406.868048
        11        16        15     1      121.441673      666.572821
        11        16        36     1      119.326927      406.868048
        12        11        16     1      117.614174      657.957877
        12        13        14     1      120.547409      774.038979
        12        13        34     1      119.646225      434.610351
        13        12        33     1      119.273048      409.173634
        13        14        15     1      118.283737      591.024028
        13        14        28     1      120.791283      598.767837
        14        13        34     1      119.721352      439.899948
        14        15        16     1      120.547409      774.038979
        14        15        35     1      119.721352      439.899948
        14        28        44     1      114.665955      489.204189
        14        28        45     1      114.665955      489.204189
        15        14        28     1      120.791283      598.767837
        15        16        36     1      119.273048      409.173634
        16        15        35     1      119.646225      434.610351
        17        18        19     1      122.505417      578.362793
        17        18        23     1      121.389572      543.101089
        18        17        37     1      114.551170      450.222622
        18        19        20     1      124.232620      770.104221
        18        19        38     1      119.153419      415.430290
        18        23        22     1      120.275772      760.585008
        18        23        24     1      121.663406      744.979344
        19        18        23     1      115.672928      673.644813
        19        20        21     1      118.320412      693.264846
        20        19        38     1      116.504784      340.209553
        20        21        22     1      122.754715      730.070077
        20        21        39     1      116.530663      356.374383
        21        22        23     1      118.684891      679.603961
        21        22        40     1      121.212906      424.346476
        22        21        39     1      120.538696      415.343272
        22        23        24     1      117.699501      539.880923
        23        22        40     1      120.270645      343.599700
        23        24        25     1      107.938034      640.902153
        23        24        26     1      107.938034      640.902153
        23        24        27     1      103.486084      654.077450
        24        27        41     1      107.672256      569.998368
        24        27        42     1      107.672256      569.998368
        24        27        43     1      107.672256      569.998368
        25        24        26     1      120.015259      741.792249
        25        24        27     1      107.539932      732.341412
        26        24        27     1      107.539932      732.341412
        41        27        42     1      111.147987      344.776258
        41        27        43     1      111.147987      344.776258
        42        27        43     1      111.147987      344.776258
        44        28        45     1      111.219055      377.436625

[ dihedrals ] ; propers for gromacs 4.5 or higher, use funct 9
;       ai        aj        ak        al funct           phase               k        pn
         1         4         3         2     9        0.000000        0.167106         1
         1         4         3         2     9      180.000000       14.145878         2
         1         4         3         2     9        0.000000       -0.836989         3
         1         4         3         2     9      180.000000       -0.237440         4
         1         4         3        17     9        0.000000        0.195819         1
         1         4         3        17     9      180.000000       15.487036         2
         1         4         3        17     9        0.000000        0.090487         3
         1         4         3        17     9      180.000000       -0.416735         4
         1         6         5         2     9        0.000000        0.136601         1
         1         6         5         2     9      180.000000       11.601559         2
         1         6         5         2     9        0.000000       -0.462910         3
         1         6         5         2     9      180.000000       -0.223606         4
         1         6         5        10     9        0.000000       -0.339666         1
         1         6         5        10     9      180.000000       10.121464         2
         1         6         5        10     9        0.000000        0.059834         3
         1         6         5        10     9      180.000000       -0.273739         4
         1         6         7         8     9        0.000000        0.547165         1
         1         6         7         8     9      180.000000       16.540471         2
         1         6         7         8     9        0.000000        0.381745         3
         1         6         7         8     9      180.000000       -0.359247         4
         1        11        12        13     9        0.000000        0.206206         1
         1        11        12        13     9      180.000000       14.840599         2
         1        11        12        13     9        0.000000       -0.121805         3
         1        11        12        13     9      180.000000       -0.173665         4
         1        11        12        33     9        0.000000       -0.037320         1
         1        11        12        33     9      180.000000       12.661323         2
         1        11        12        33     9        0.000000       -0.158865         3
         1        11        12        33     9      180.000000        0.214873         4
         1        11        16        15     9        0.000000        0.206206         1
         1        11        16        15     9      180.000000       14.840599         2
         1        11        16        15     9        0.000000       -0.121805         3
         1        11        16        15     9      180.000000       -0.173665         4
         1        11        16        36     9        0.000000       -0.037320         1
         1        11        16        36     9      180.000000       12.661323         2
         1        11        16        36     9        0.000000       -0.158864         3
         1        11        16        36     9      180.000000        0.214873         4
         2         3         4        30     9        0.000000       -0.062430         1
         2         3         4        30     9      180.000000       11.927328         2
         2         3         4        30     9        0.000000       -0.431705         3
         2         3         4        30     9      180.000000        0.110490         4
         2         3        17        18     9        0.000000       -0.167871         1
         2         3        17        18     9      180.000000        3.526327         2
         2         3        17        18     9        0.000000       -0.356690         3
         2         3        17        18     9      180.000000        0.139573         4
         2         3        17        37     9        0.000000       -0.457731         1
         2         3        17        37     9      180.000000        3.512782         2
         2         3        17        37     9        0.000000       -0.099182         3
         2         3        17        37     9      180.000000        0.073474         4
         2         5         6         7     9        0.000000        0.337417         1
         2         5         6         7     9      180.000000       11.181904         2
         2         5         6         7     9        0.000000       -0.066177         3
         2         5         6         7     9      180.000000       -0.252704         4
         2         5        10         9     9        0.000000       -0.023334         1
         2         5        10         9     9      180.000000       18.424194         2
         2         5        10         9     9        0.000000        0.154347         3
         2         5        10         9     9      180.000000       -0.275637         4
         3         2         5         6     9        0.000000       -0.530340         1
         3         2         5         6     9      180.000000       13.660331         2
         3         2         5         6     9        0.000000       -0.959970         3
         3         2         5         6     9      180.000000       -0.183422         4
         3         2         5        10     9        0.000000       -0.306896         1
         3         2         5        10     9      180.000000       14.010283         2
         3         2         5        10     9        0.000000       -0.425194         3
         3         2         5        10     9      180.000000       -0.392180         4
         3         4         1         6     9        0.000000       -0.208331         1
         3         4         1         6     9      180.000000       19.528674         2
         3         4         1         6     9        0.000000       -1.536774         3
         3         4         1         6     9      180.000000       -0.319841         4
         3         4         1        11     9        0.000000        0.338295         1
         3         4         1        11     9      180.000000       19.375777         2
         3         4         1        11     9        0.000000        0.039195         3
         3         4         1        11     9      180.000000       -0.787042         4
         3        17        18        19     9        0.000000        1.786047         1
         3        17        18        19     9      180.000000        3.116500         2
         3        17        18        19     9        0.000000       -0.286577         3
         3        17        18        19     9      180.000000        0.145436         4
         3        17        18        23     9        0.000000       -1.816149         1
         3        17        18        23     9      180.000000        4.619862         2
         3        17        18        23     9        0.000000       -0.590150         3
         3        17        18        23     9      180.000000        0.059912         4
         4         1         6         5     9        0.000000       -0.403050         1
         4         1         6         5     9      180.000000       10.576873         2
         4         1         6         5     9        0.000000       -0.856706         3
         4         1         6         5     9      180.000000        0.029522         4
         4         1         6         7     9        0.000000        0.098681         1
         4         1         6         7     9      180.000000        9.564116         2
         4         1         6         7     9        0.000000       -0.269460         3
         4         1         6         7     9      180.000000       -0.093680         4
         4         1        11        12     9        0.000000       -0.425496         1
         4         1        11        12     9      180.000000        4.582771         2
         4         1        11        12     9        0.000000        0.125698         3
         4         1        11        12     9      180.000000        0.579762         4
         4         1        11        16     9        0.000000       -0.425496         1
         4         1        11        16     9      180.000000        4.582771         2
         4         1        11        16     9        0.000000        0.125698         3
         4         1        11        16     9      180.000000        0.579762         4
         4         3         2         5     9        0.000000       -0.167718         1
         4         3         2         5     9      180.000000       17.290347         2
         4         3         2         5     9        0.000000       -1.146064         3
         4         3         2         5     9      180.000000       -0.418463         4
         4         3         2        29     9        0.000000        0.061252         1
         4         3         2        29     9      180.000000       13.337189         2
         4         3         2        29     9        0.000000       -0.359259         3
         4         3         2        29     9      180.000000        0.130980         4
         4         3        17        18     9        0.000000       -0.216344         1
         4         3        17        18     9      180.000000        3.383541         2
         4         3        17        18     9        0.000000        0.029880         3
         4         3        17        18     9      180.000000        0.116824         4
         4         3        17        37     9        0.000000       -0.412558         1
         4         3        17        37     9      180.000000        3.316538         2
         4         3        17        37     9        0.000000        0.047273         3
         4         3        17        37     9      180.000000        0.093660         4
         5         2         3        17     9        0.000000        0.246511         1
         5         2         3        17     9      180.000000       19.522853         2
         5         2         3        17     9        0.000000        0.055608         3
         5         2         3        17     9      180.000000       -0.772829         4
         5         6         1        11     9        0.000000        0.173516         1
         5         6         1        11     9      180.000000       12.628462         2
         5         6         1        11     9        0.000000       -0.013189         3
         5         6         1        11     9      180.000000       -0.485356         4
         5         6         7         8     9        0.000000        0.172539         1
         5         6         7         8     9      180.000000       16.817876         2
         5         6         7         8     9        0.000000       -0.048042         3
         5         6         7         8     9      180.000000       -0.239301         4
         5        10         9         8     9        0.000000       -0.161990         1
         5        10         9         8     9      180.000000       25.805864         2
         5        10         9         8     9        0.000000       -0.989158         3
         5        10         9         8     9      180.000000       -0.201960         4
         5        10         9        32     9        0.000000        0.808513         1
         5        10         9        32     9      180.000000       23.535886         2
         5        10         9        32     9        0.000000        0.064004         3
         5        10         9        32     9      180.000000       -0.475717         4
         6         1         4        30     9        0.000000        0.182294         1
         6         1         4        30     9      180.000000       15.796543         2
         6         1         4        30     9        0.000000       -0.326275         3
         6         1         4        30     9      180.000000        0.176074         4
         6         1        11        12     9        0.000000       -0.017924         1
         6         1        11        12     9      180.000000        4.182723         2
         6         1        11        12     9        0.000000       -0.163298         3
         6         1        11        12     9      180.000000        0.735823         4
         6         1        11        16     9        0.000000       -0.017924         1
         6         1        11        16     9      180.000000        4.182723         2
         6         1        11        16     9        0.000000       -0.163298         3
         6         1        11        16     9      180.000000        0.735823         4
         6         5         2        29     9        0.000000       -0.168579         1
         6         5         2        29     9      180.000000       10.564597         2
         6         5         2        29     9        0.000000       -0.261929         3
         6         5         2        29     9      180.000000       -0.006921         4
         6         5        10         9     9        0.000000       -0.113243         1
         6         5        10         9     9      180.000000       16.457234         2
         6         5        10         9     9        0.000000        0.035209         3
         6         5        10         9     9      180.000000       -0.227308         4
         6         7         8         9     9        0.000000        0.104497         1
         6         7         8         9     9      180.000000       25.053764         2
         6         7         8         9     9        0.000000       -0.955082         3
         6         7         8         9     9      180.000000       -0.160012         4
         6         7         8        31     9        0.000000        0.726539         1
         6         7         8        31     9      180.000000       22.911942         2
         6         7         8        31     9        0.000000        0.102107         3
         6         7         8        31     9      180.000000       -0.545266         4
         7         6         1        11     9        0.000000       -0.480930         1
         7         6         1        11     9      180.000000       12.360785         2
         7         6         1        11     9        0.000000       -0.117592         3
         7         6         1        11     9      180.000000       -0.491659         4
         7         6         5        10     9        0.000000        0.152873         1
         7         6         5        10     9      180.000000       11.072213         2
         7         6         5        10     9        0.000000        0.155830         3
         7         6         5        10     9      180.000000       -0.400050         4
         7         8         9        10     9        0.000000       -0.713203         1
         7         8         9        10     9      180.000000       11.742392         2
         7         8         9        10     9        0.000000       -0.552181         3
         7         8         9        10     9      180.000000       -0.521535         4
         7         8         9        32     9        0.000000       -0.026031         1
         7         8         9        32     9      180.000000        9.508286         2
         7         8         9        32     9        0.000000       -0.255749         3
         7         8         9        32     9      180.000000       -0.134502         4
        10         5         2        29     9        0.000000        0.016940         1
        10         5         2        29     9      180.000000       11.980067         2
        10         5         2        29     9        0.000000       -0.349905         3
        10         5         2        29     9      180.000000        0.012863         4
        10         9         8        31     9        0.000000       -0.199022         1
        10         9         8        31     9      180.000000        9.267615         2
        10         9         8        31     9        0.000000       -0.318099         3
        10         9         8        31     9      180.000000       -0.090079         4
        11         1         4        30     9        0.000000        0.010405         1
        11         1         4        30     9      180.000000       15.055951         2
        11         1         4        30     9        0.000000       -0.166092         3
        11         1         4        30     9      180.000000        0.085214         4
        11        12        13        14     9        0.000000        0.031671         1
        11        12        13        14     9      180.000000       18.857607         2
        11        12        13        14     9        0.000000       -1.789412         3
        11        12        13        14     9      180.000000       -0.463156         4
        11        12        13        34     9        0.000000        0.026120         1
        11        12        13        34     9      180.000000       14.746249         2
        11        12        13        34     9        0.000000       -0.517203         3
        11        12        13        34     9      180.000000        0.105680         4
        11        16        15        14     9        0.000000        0.031671         1
        11        16        15        14     9      180.000000       18.857607         2
        11        16        15        14     9        0.000000       -1.789412         3
        11        16        15        14     9      180.000000       -0.463156         4
        11        16        15        35     9        0.000000        0.026120         1
        11        16        15        35     9      180.000000       14.746247         2
        11        16        15        35     9        0.000000       -0.517203         3
        11        16        15        35     9      180.000000        0.105681         4
        12        11        16        15     9        0.000000       -0.047941         1
        12        11        16        15     9      180.000000       18.682343         2
        12        11        16        15     9        0.000000       -1.423718         3
        12        11        16        15     9      180.000000       -0.377841         4
        12        11        16        36     9        0.000000        0.128065         1
        12        11        16        36     9      180.000000       14.146319         2
        12        11        16        36     9        0.000000       -0.560996         3
        12        11        16        36     9      180.000000        0.122485         4
        12        13        14        15     9        0.000000        0.146159         1
        12        13        14        15     9      180.000000       15.348912         2
        12        13        14        15     9        0.000000       -0.902081         3
        12        13        14        15     9      180.000000       -0.180021         4
        12        13        14        28     9        0.000000        0.220599         1
        12        13        14        28     9      180.000000       17.185503         2
        12        13        14        28     9        0.000000        0.035675         3
        12        13        14        28     9      180.000000       -0.349377         4
        13        12        11        16     9        0.000000       -0.047941         1
        13        12        11        16     9      180.000000       18.682343         2
        13        12        11        16     9        0.000000       -1.423718         3
        13        12        11        16     9      180.000000       -0.377841         4
        13        14        15        16     9        0.000000        0.146159         1
        13        14        15        16     9      180.000000       15.348912         2
        13        14        15        16     9        0.000000       -0.902081         3
        13        14        15        16     9      180.000000       -0.180021         4
        13        14        15        35     9        0.000000        0.022167         1
        13        14        15        35     9      180.000000       12.650752         2
        13        14        15        35     9        0.000000       -0.297164         3
        13        14        15        35     9      180.000000        0.084361         4
        13        14        28        44     9        0.000000        0.020368         1
        13        14        28        44     9      180.000000        4.819579         2
        13        14        28        44     9        0.000000        0.015287         3
        13        14        28        44     9      180.000000        0.366264         4
        13        14        28        45     9        0.000000        0.020368         1
        13        14        28        45     9      180.000000        4.819579         2
        13        14        28        45     9        0.000000        0.015287         3
        13        14        28        45     9      180.000000        0.366264         4
        14        13        12        33     9        0.000000        0.183584         1
        14        13        12        33     9      180.000000       14.880081         2
        14        13        12        33     9        0.000000       -0.677490         3
        14        13        12        33     9      180.000000       -0.000738         4
        14        15        16        36     9        0.000000        0.183584         1
        14        15        16        36     9      180.000000       14.880078         2
        14        15        16        36     9        0.000000       -0.677490         3
        14        15        16        36     9      180.000000       -0.000737         4
        15        14        13        34     9        0.000000        0.022167         1
        15        14        13        34     9      180.000000       12.650751         2
        15        14        13        34     9        0.000000       -0.297164         3
        15        14        13        34     9      180.000000        0.084362         4
        15        14        28        44     9        0.000000        0.020368         1
        15        14        28        44     9      180.000000        4.819579         2
        15        14        28        44     9        0.000000        0.015287         3
        15        14        28        44     9      180.000000        0.366264         4
        15        14        28        45     9        0.000000        0.020368         1
        15        14        28        45     9      180.000000        4.819579         2
        15        14        28        45     9        0.000000        0.015287         3
        15        14        28        45     9      180.000000        0.366264         4
        16        11        12        33     9        0.000000        0.128066         1
        16        11        12        33     9      180.000000       14.146320         2
        16        11        12        33     9        0.000000       -0.560996         3
        16        11        12        33     9      180.000000        0.122485         4
        16        15        14        28     9        0.000000        0.220599         1
        16        15        14        28     9      180.000000       17.185503         2
        16        15        14        28     9        0.000000        0.035675         3
        16        15        14        28     9      180.000000       -0.349377         4
        17         3         2        29     9        0.000000       -0.006423         1
        17         3         2        29     9      180.000000       15.238159         2
        17         3         2        29     9        0.000000       -0.072526         3
        17         3         2        29     9      180.000000        0.161232         4
        17         3         4        30     9        0.000000       -0.052764         1
        17         3         4        30     9      180.000000       14.029721         2
        17         3         4        30     9        0.000000       -0.046524         3
        17         3         4        30     9      180.000000        0.147453         4
        17        18        19        20     9        0.000000        0.186749         1
        17        18        19        20     9      180.000000       16.683917         2
        17        18        19        20     9        0.000000        0.179116         3
        17        18        19        20     9      180.000000       -0.684725         4
        17        18        19        38     9        0.000000       -0.299543         1
        17        18        19        38     9      180.000000       14.371219         2
        17        18        19        38     9        0.000000       -0.253273         3
        17        18        19        38     9      180.000000        0.145399         4
        17        18        23        22     9        0.000000        0.142199         1
        17        18        23        22     9      180.000000       15.897986         2
        17        18        23        22     9        0.000000        0.030266         3
        17        18        23        22     9      180.000000       -0.460852         4
        17        18        23        24     9        0.000000       -0.927877         1
        17        18        23        24     9      180.000000       13.516794         2
        17        18        23        24     9        0.000000       -0.073923         3
        17        18        23        24     9      180.000000       -0.622706         4
        18        19        20        21     9        0.000000        0.319722         1
        18        19        20        21     9      180.000000       22.949103         2
        18        19        20        21     9        0.000000       -0.741217         3
        18        19        20        21     9      180.000000        0.175923         4
        18        23        22        21     9        0.000000       -0.049559         1
        18        23        22        21     9      180.000000       18.886873         2
        18        23        22        21     9        0.000000       -2.021566         3
        18        23        22        21     9      180.000000       -0.405198         4
        18        23        22        40     9        0.000000        0.229105         1
        18        23        22        40     9      180.000000       14.976782         2
        18        23        22        40     9        0.000000       -0.507226         3
        18        23        22        40     9      180.000000        0.085320         4
        18        23        24        25     9        0.000000       -1.334284         1
        18        23        24        25     9      180.000000        0.814376         2
        18        23        24        25     9        0.000000        0.785313         3
        18        23        24        25     9      180.000000       -0.187784         4
        18        23        24        26     9        0.000000       -1.334284         1
        18        23        24        26     9      180.000000        0.814376         2
        18        23        24        26     9        0.000000        0.785313         3
        18        23        24        26     9      180.000000       -0.187784         4
        18        23        24        27     9        0.000000        3.729087         1
        18        23        24        27     9      180.000000       -2.195929         2
        18        23        24        27     9        0.000000        0.799429         3
        18        23        24        27     9      180.000000        0.054293         4
        19        18        17        37     9        0.000000       -1.272590         1
        19        18        17        37     9      180.000000        2.989698         2
        19        18        17        37     9        0.000000       -0.423807         3
        19        18        17        37     9      180.000000        0.040258         4
        19        18        23        22     9        0.000000       -0.037262         1
        19        18        23        22     9      180.000000       14.380144         2
        19        18        23        22     9        0.000000       -0.900345         3
        19        18        23        22     9      180.000000       -0.221952         4
        19        18        23        24     9        0.000000        0.366401         1
        19        18        23        24     9      180.000000       11.025739         2
        19        18        23        24     9        0.000000        0.150288         3
        19        18        23        24     9      180.000000       -0.363523         4
        19        20        21        22     9        0.000000        0.177563         1
        19        20        21        22     9      180.000000       22.523862         2
        19        20        21        22     9        0.000000       -0.901752         3
        19        20        21        22     9      180.000000       -0.193725         4
        19        20        21        39     9        0.000000        0.988694         1
        19        20        21        39     9      180.000000       20.417146         2
        19        20        21        39     9        0.000000        0.253449         3
        19        20        21        39     9      180.000000       -0.430136         4
        20        19        18        23     9        0.000000       -0.510166         1
        20        19        18        23     9      180.000000       14.375530         2
        20        19        18        23     9        0.000000       -0.595358         3
        20        19        18        23     9      180.000000       -0.489937         4
        20        21        22        23     9        0.000000       -0.220826         1
        20        21        22        23     9      180.000000       18.549630         2
        20        21        22        23     9        0.000000       -1.222990         3
        20        21        22        23     9      180.000000       -0.581963         4
        20        21        22        40     9        0.000000        0.066372         1
        20        21        22        40     9      180.000000       14.573595         2
        20        21        22        40     9        0.000000       -0.318036         3
        20        21        22        40     9      180.000000       -0.017204         4
        21        20        19        38     9        0.000000        1.115355         1
        21        20        19        38     9      180.000000       20.962220         2
        21        20        19        38     9        0.000000        0.247396         3
        21        20        19        38     9      180.000000       -0.016300         4
        21        22        23        24     9        0.000000        0.192524         1
        21        22        23        24     9      180.000000       13.995354         2
        21        22        23        24     9        0.000000        0.189775         3
        21        22        23        24     9      180.000000       -0.443900         4
        22        23        24        25     9        0.000000       -0.090526         1
        22        23        24        25     9      180.000000        0.655865         2
        22        23        24        25     9        0.000000       -0.321290         3
        22        23        24        25     9      180.000000       -0.045697         4
        22        23        24        26     9        0.000000       -0.090526         1
        22        23        24        26     9      180.000000        0.655865         2
        22        23        24        26     9        0.000000       -0.321290         3
        22        23        24        26     9      180.000000       -0.045697         4
        22        23        24        27     9        0.000000        0.119864         1
        22        23        24        27     9      180.000000       -0.559450         2
        22        23        24        27     9        0.000000       -0.551232         3
        22        23        24        27     9      180.000000        0.255504         4
        23        18        17        37     9        0.000000        2.440458         1
        23        18        17        37     9      180.000000        3.205589         2
        23        18        17        37     9        0.000000       -0.727467         3
        23        18        17        37     9      180.000000        0.027702         4
        23        18        19        38     9        0.000000        0.058995         1
        23        18        19        38     9      180.000000       12.296400         2
        23        18        19        38     9        0.000000       -0.329284         3
        23        18        19        38     9      180.000000        0.069067         4
        23        22        21        39     9        0.000000        0.008007         1
        23        22        21        39     9      180.000000       14.871301         2
        23        22        21        39     9        0.000000       -0.365300         3
        23        22        21        39     9      180.000000       -0.122425         4
        23        24        27        41     9        0.000000        0.134670         1
        23        24        27        41     9      180.000000       -0.180389         2
        23        24        27        41     9        0.000000        0.326690         3
        23        24        27        41     9      180.000000       -0.016353         4
        23        24        27        42     9        0.000000        0.134670         1
        23        24        27        42     9      180.000000       -0.180389         2
        23        24        27        42     9        0.000000        0.326690         3
        23        24        27        42     9      180.000000       -0.016353         4
        23        24        27        43     9        0.000000        0.134670         1
        23        24        27        43     9      180.000000       -0.180389         2
        23        24        27        43     9        0.000000        0.326690         3
        23        24        27        43     9      180.000000       -0.016353         4
        24        23        22        40     9        0.000000       -0.032266         1
        24        23        22        40     9      180.000000       12.082714         2
        24        23        22        40     9        0.000000       -0.269976         3
        24        23        22        40     9      180.000000        0.014566         4
        25        24        27        41     9        0.000000       -0.020339         1
        25        24        27        41     9      180.000000       -0.042566         2
        25        24        27        41     9        0.000000        0.357266         3
        25        24        27        41     9      180.000000        0.004050         4
        25        24        27        42     9        0.000000       -0.020339         1
        25        24        27        42     9      180.000000       -0.042566         2
        25        24        27        42     9        0.000000        0.357266         3
        25        24        27        42     9      180.000000        0.004050         4
        25        24        27        43     9        0.000000       -0.020339         1
        25        24        27        43     9      180.000000       -0.042566         2
        25        24        27        43     9        0.000000        0.357266         3
        25        24        27        43     9      180.000000        0.004050         4
        26        24        27        41     9        0.000000       -0.020339         1
        26        24        27        41     9      180.000000       -0.042566         2
        26        24        27        41     9        0.000000        0.357266         3
        26        24        27        41     9      180.000000        0.004050         4
        26        24        27        42     9        0.000000       -0.020339         1
        26        24        27        42     9      180.000000       -0.042566         2
        26        24        27        42     9        0.000000        0.357266         3
        26        24        27        42     9      180.000000        0.004050         4
        26        24        27        43     9        0.000000       -0.020339         1
        26        24        27        43     9      180.000000       -0.042566         2
        26        24        27        43     9        0.000000        0.357266         3
        26        24        27        43     9      180.000000        0.004050         4
        28        14        13        34     9        0.000000       -0.091100         1
        28        14        13        34     9      180.000000       14.480095         2
        28        14        13        34     9        0.000000       -0.069923         3
        28        14        13        34     9      180.000000        0.172859         4
        28        14        15        35     9        0.000000       -0.091100         1
        28        14        15        35     9      180.000000       14.480098         2
        28        14        15        35     9        0.000000       -0.069923         3
        28        14        15        35     9      180.000000        0.172859         4
        31         8         9        32     9        0.000000       -0.431715         1
        31         8         9        32     9      180.000000        6.869070         2
        31         8         9        32     9        0.000000       -0.569257         3
        31         8         9        32     9      180.000000        0.186659         4
        33        12        13        34     9        0.000000       -0.136829         1
        33        12        13        34     9      180.000000       12.261519         2
        33        12        13        34     9        0.000000       -0.650591         3
        33        12        13        34     9      180.000000        0.323241         4
        35        15        16        36     9        0.000000       -0.136829         1
        35        15        16        36     9      180.000000       12.261519         2
        35        15        16        36     9        0.000000       -0.650591         3
        35        15        16        36     9      180.000000        0.323241         4
        39        21        22        40     9        0.000000       -0.049751         1
        39        21        22        40     9      180.000000       11.944933         2
        39        21        22        40     9        0.000000       -0.710210         3
        39        21        22        40     9      180.000000        0.205813         4

[ dihedrals ] ; impropers
;       ai        aj        ak        al funct           phase               k        pn
         1         4         6        11     4      180.000000        0.288400         2
         1         6        11         4     4      180.000000        0.288400         2
         1        11         4         6     4      180.000000        0.288400         2
         8         7         9        31     4      180.000000        4.409855         2
         8         9        31         7     4      180.000000        4.409855         2
         8        31         7         9     4      180.000000        4.409855         2
         9         8        10        32     4      180.000000        4.162411         2
         9        10        32         8     4      180.000000        4.162411         2
         9        32         8        10     4      180.000000        4.162411         2
        19        18        20        38     4      180.000000        3.547250         2
        19        20        38        18     4      180.000000        3.547250         2
        19        38        18        20     4      180.000000        3.547250         2
        21        20        22        39     4      180.000000        3.347116         2
        21        22        39        20     4      180.000000        3.347116         2
        21        39        20        22     4      180.000000        3.347116         2

[ pairs ]
;       ai        aj funct
         1         2     1
         1         8     1
         1        10     1
         1        13     1
         1        15     1
         1        17     1
         1        33     1
         1        36     1
         2         7     1
         2         9     1
         2        18     1
         2        30     1
         2        37     1
         3         6     1
         3        10     1
         3        11     1
         3        19     1
         3        23     1
         4         5     1
         4         7     1
         4        12     1
         4        16     1
         4        18     1
         4        29     1
         4        37     1
         5         8     1
         5        11     1
         5        17     1
         5        32     1
         6         9     1
         6        12     1
         6        16     1
         6        29     1
         6        30     1
         6        31     1
         7        10     1
         7        11     1
         7        32     1
        10        29     1
        10        31     1
        11        14     1
        11        30     1
        11        34     1
        11        35     1
        12        15     1
        12        28     1
        12        36     1
        13        16     1
        13        35     1
        13        44     1
        13        45     1
        14        33     1
        14        36     1
        15        34     1
        15        44     1
        15        45     1
        16        28     1
        16        33     1
        17        20     1
        17        22     1
        17        24     1
        17        29     1
        17        30     1
        17        38     1
        18        21     1
        18        25     1
        18        26     1
        18        27     1
        18        40     1
        19        22     1
        19        24     1
        19        37     1
        19        39     1
        20        23     1
        20        40     1
        21        24     1
        21        38     1
        22        25     1
        22        26     1
        22        27     1
        23        37     1
        23        38     1
        23        39     1
        23        41     1
        23        42     1
        23        43     1
        24        40     1
        25        41     1
        25        42     1
        25        43     1
        26        41     1
        26        42     1
        26        43     1
        28        34     1
        28        35     1
        31        32     1
        33        34     1
        35        36     1
        39        40     1
