; ITP file created by ByteFF-ML, 2026-02-21 07:42:29.550753

[ atomtypes ]
;name           bonded.type        at.num        mass        charge   ptype           sigma         epsilon
 c0bf                                   6      0.0000       0.00000       A     3.31169e-01     4.10704e-01
 c1bf                                   6      0.0000       0.00000       A     3.31696e-01     4.13508e-01
 c2bf                                   6      0.0000       0.00000       A     3.31534e-01     4.11219e-01
 c3bf                                   6      0.0000       0.00000       A     3.31588e-01     4.14304e-01
 c4bf                                   6      0.0000       0.00000       A     3.31387e-01     4.12836e-01
 c5bf                                   6      0.0000       0.00000       A     3.31581e-01     4.11588e-01
 n6bf                                   7      0.0000       0.00000       A     3.38246e-01     3.93082e-01
 c7bf                                   6      0.0000       0.00000       A     3.31514e-01     4.13144e-01
 c8bf                                   6      0.0000       0.00000       A     3.31562e-01     4.13392e-01
 n9bf                                   7      0.0000       0.00000       A     3.38456e-01     3.92772e-01
 n10bf                                  7      0.0000       0.00000       A     3.27929e-01     6.45227e-01
 c11bf                                  6      0.0000       0.00000       A     3.31581e-01     4.12886e-01
 c12bf                                  6      0.0000       0.00000       A     3.31706e-01     4.11679e-01
 n13bf                                  7      0.0000       0.00000       A     3.38344e-01     3.92967e-01
 c14bf                                  6      0.0000       0.00000       A     3.31482e-01     4.12140e-01
 c15bf                                  6      0.0000       0.00000       A     3.31194e-01     4.12903e-01
 c16bf                                  6      0.0000       0.00000       A     3.31298e-01     4.15822e-01
 s17bf                                 16      0.0000       0.00000       A     4.05645e-01     2.55727e-01
 o18bf                                  8      0.0000       0.00000       A     3.04857e-01     6.11370e-01
 o19bf                                  8      0.0000       0.00000       A     3.04857e-01     6.11370e-01
 c20bf                                  6      0.0000       0.00000       A     3.39611e-01     4.49156e-01
 c21bf                                  6      0.0000       0.00000       A     3.31420e-01     4.09858e-01
 c22bf                                  6      0.0000       0.00000       A     3.31417e-01     4.13037e-01
 c23bf                                  6      0.0000       0.00000       A     3.31516e-01     4.13372e-01
 c24bf                                  6      0.0000       0.00000       A     3.31258e-01     4.14143e-01
 c25bf                                  6      0.0000       0.00000       A     3.31421e-01     4.12825e-01
 c26bf                                  6      0.0000       0.00000       A     3.31390e-01     4.13249e-01
 c27bf                                  6      0.0000       0.00000       A     3.31440e-01     4.13428e-01
 c28bf                                  6      0.0000       0.00000       A     3.31445e-01     4.11949e-01
 n29bf                                  7      0.0000       0.00000       A     3.20735e-01     8.54561e-01
 c30bf                                  6      0.0000       0.00000       A     3.39641e-01     4.51068e-01
 c31bf                                  6      0.0000       0.00000       A     3.39725e-01     4.52075e-01
 h32bf                                  1      0.0000       0.00000       A     2.62399e-01     6.76733e-02
 h33bf                                  1      0.0000       0.00000       A     2.62381e-01     6.75967e-02
 h34bf                                  1      0.0000       0.00000       A     2.53506e-01     6.72855e-02
 h35bf                                  1      0.0000       0.00000       A     2.53506e-01     6.72855e-02
 h36bf                                  1      0.0000       0.00000       A     1.10952e-01     4.04428e-02
 h37bf                                  1      0.0000       0.00000       A     2.53583e-01     6.80915e-02
 h38bf                                  1      0.0000       0.00000       A     2.53644e-01     6.69998e-02
 h39bf                                  1      0.0000       0.00000       A     2.62744e-01     6.79622e-02
 h40bf                                  1      0.0000       0.00000       A     2.42021e-01     8.71597e-02
 h41bf                                  1      0.0000       0.00000       A     2.42021e-01     8.71597e-02
 h42bf                                  1      0.0000       0.00000       A     2.42021e-01     8.71597e-02
 h43bf                                  1      0.0000       0.00000       A     2.62523e-01     6.73238e-02
 h44bf                                  1      0.0000       0.00000       A     2.62498e-01     6.69232e-02
 h45bf                                  1      0.0000       0.00000       A     2.62405e-01     6.76334e-02
 h46bf                                  1      0.0000       0.00000       A     2.62695e-01     6.74962e-02
 h47bf                                  1      0.0000       0.00000       A     2.53864e-01     6.69407e-02
 h48bf                                  1      0.0000       0.00000       A     2.42230e-01     8.70512e-02
 h49bf                                  1      0.0000       0.00000       A     2.42230e-01     8.70512e-02
 h50bf                                  1      0.0000       0.00000       A     2.59951e-01     8.73864e-02
 h51bf                                  1      0.0000       0.00000       A     2.59951e-01     8.73864e-02
 h52bf                                  1      0.0000       0.00000       A     2.59951e-01     8.73864e-02

[ moleculetype ]
;name             nrexcl
 52                    3

[ atoms ]
;       nr            type      resi   res      atom      cgnr      charge          mass ; qtot
         1            c0bf         1   UNL        c0         1     0.02972       12.0110 ; qtot    0.030
         2            c1bf         1   UNL        c1         2    -0.14199       12.0110 ; qtot   -0.112
         3            c2bf         1   UNL        c2         3     0.30813       12.0110 ; qtot    0.196
         4            c3bf         1   UNL        c3         4    -0.13115       12.0110 ; qtot    0.065
         5            c4bf         1   UNL        c4         5     0.25847       12.0110 ; qtot    0.323
         6            c5bf         1   UNL        c5         6     0.21965       12.0110 ; qtot    0.543
         7            n6bf         1   UNL        n6         7    -0.62228       14.0070 ; qtot   -0.079
         8            c7bf         1   UNL        c7         8     0.29317       12.0110 ; qtot    0.214
         9            c8bf         1   UNL        c8         9     0.29405       12.0110 ; qtot    0.508
        10            n9bf         1   UNL        n9        10    -0.62285       14.0070 ; qtot   -0.115
        11           n10bf         1   UNL       n10        11    -0.96404       14.0070 ; qtot   -1.079
        12           c11bf         1   UNL       c11        12     0.35358       12.0110 ; qtot   -0.726
        13           c12bf         1   UNL       c12        13     0.27846       12.0110 ; qtot   -0.447
        14           n13bf         1   UNL       n13        14    -0.60355       14.0070 ; qtot   -1.051
        15           c14bf         1   UNL       c14        15     0.28639       12.0110 ; qtot   -0.764
        16           c15bf         1   UNL       c15        16    -0.03902       12.0110 ; qtot   -0.803
        17           c16bf         1   UNL       c16        17    -0.27733       12.0110 ; qtot   -1.081
        18           s17bf         1   UNL       s17        18     0.99436       32.0670 ; qtot   -0.086
        19           o18bf         1   UNL       o18        19    -0.51400       15.9990 ; qtot   -0.600
        20           o19bf         1   UNL       o19        20    -0.51400       15.9990 ; qtot   -1.114
        21           c20bf         1   UNL       c20        21    -0.29607       12.0110 ; qtot   -1.410
        22           c21bf         1   UNL       c21        22    -0.02764       12.0110 ; qtot   -1.438
        23           c22bf         1   UNL       c22        23    -0.11542       12.0110 ; qtot   -1.553
        24           c23bf         1   UNL       c23        24    -0.07119       12.0110 ; qtot   -1.625
        25           c24bf         1   UNL       c24        25    -0.10278       12.0110 ; qtot   -1.727
        26           c25bf         1   UNL       c25        26    -0.04904       12.0110 ; qtot   -1.776
        27           c26bf         1   UNL       c26        27    -0.09305       12.0110 ; qtot   -1.869
        28           c27bf         1   UNL       c27        28    -0.24046       12.0110 ; qtot   -2.110
        29           c28bf         1   UNL       c28        29    -0.14970       12.0110 ; qtot   -2.260
        30           n29bf         1   UNL       n29        30    -0.10864       14.0070 ; qtot   -2.368
        31           c30bf         1   UNL       c30        31     0.07608       12.0110 ; qtot   -2.292
        32           c31bf         1   UNL       c31        32    -0.11706       12.0110 ; qtot   -2.409
        33           h32bf         1   UNL       h32        33     0.14328        1.0080 ; qtot   -2.266
        34           h33bf         1   UNL       h33        34     0.12730        1.0080 ; qtot   -2.139
        35           h34bf         1   UNL       h34        35     0.03158        1.0080 ; qtot   -2.107
        36           h35bf         1   UNL       h35        36     0.03160        1.0080 ; qtot   -2.075
        37           h36bf         1   UNL       h36        37     0.51181        1.0080 ; qtot   -1.564
        38           h37bf         1   UNL       h37        38     0.03589        1.0080 ; qtot   -1.528
        39           h38bf         1   UNL       h38        39     0.03700        1.0080 ; qtot   -1.491
        40           h39bf         1   UNL       h39        40     0.15079        1.0080 ; qtot   -1.340
        41           h40bf         1   UNL       h40        41     0.10467        1.0080 ; qtot   -1.235
        42           h41bf         1   UNL       h41        42     0.10467        1.0080 ; qtot   -1.131
        43           h42bf         1   UNL       h42        43     0.10467        1.0080 ; qtot   -1.026
        44           h43bf         1   UNL       h43        44     0.12044        1.0080 ; qtot   -0.906
        45           h44bf         1   UNL       h44        45     0.11787        1.0080 ; qtot   -0.788
        46           h45bf         1   UNL       h45        46     0.12810        1.0080 ; qtot   -0.660
        47           h46bf         1   UNL       h46        47     0.20481        1.0080 ; qtot   -0.455
        48           h47bf         1   UNL       h47        48     0.20785        1.0080 ; qtot   -0.247
        49           h48bf         1   UNL       h48        49     0.05438        1.0080 ; qtot   -0.192
        50           h49bf         1   UNL       h49        50     0.05438        1.0080 ; qtot   -0.138
        51           h50bf         1   UNL       h50        51     0.04606        1.0080 ; qtot   -0.092
        52           h51bf         1   UNL       h51        52     0.04606        1.0080 ; qtot   -0.046
        53           h52bf         1   UNL       h52        53     0.04599        1.0080 ; qtot   -0.000

[ bonds ]
;       ai        aj funct               r               k
         1         4     1        0.138628   330545.857324
         1         6     1        0.143443   237124.982324
         1        22     1        0.148398   213063.534814
         2         3     1        0.138622   325678.790723
         2         5     1        0.141521   284459.010498
         2        33     1        0.108434   324306.120020
         3         4     1        0.142346   251378.111328
         3        11     1        0.140593   260287.089453
         4        34     1        0.108420   321509.091504
         5         6     1        0.143386   223579.461084
         5        10     1        0.136675   270922.835840
         6         7     1        0.136378   268382.250977
         7         8     1        0.131881   374103.202393
         8         9     1        0.142216   238192.510107
         8        35     1        0.108820   315940.162988
         9        10     1        0.131846   380187.239941
         9        36     1        0.108836   315483.763770
        11        12     1        0.138908   287909.073975
        11        37     1        0.101485   406811.259766
        12        13     1        0.141520   257222.712939
        12        17     1        0.141314   265581.366357
        13        14     1        0.133244   341315.137256
        13        38     1        0.108642   319937.129199
        14        15     1        0.133977   313656.558057
        15        16     1        0.139506   299656.731641
        15        39     1        0.108702   319547.177539
        16        17     1        0.139402   313134.043262
        16        40     1        0.108446   326160.114160
        17        18     1        0.180715   124483.640259
        18        19     1        0.147464   495020.215039
        18        20     1        0.147464   495020.215039
        18        21     1        0.180772   140787.539600
        21        41     1        0.109028   319230.108789
        21        42     1        0.109028   319230.108789
        21        43     1        0.109028   319230.108789
        22        23     1        0.142023   258564.585889
        22        25     1        0.140122   292184.573437
        23        24     1        0.138890   334507.684473
        23        44     1        0.108507   320582.477490
        24        27     1        0.140749   301618.543457
        24        45     1        0.108659   317447.771777
        25        26     1        0.139833   309064.679346
        25        46     1        0.108424   321956.271826
        26        27     1        0.142581   240019.383838
        26        30     1        0.138526   256475.165137
        27        28     1        0.143796   249226.763086
        28        29     1        0.137548   381478.855859
        28        47     1        0.108172   334371.495068
        29        30     1        0.138708   272992.031201
        29        48     1        0.108214   332344.972217
        30        31     1        0.145576   212035.500171
        31        32     1        0.153232   189837.418921
        31        49     1        0.109405   296979.957373
        31        50     1        0.109405   296979.957373
        32        51     1        0.109348   302638.061475
        32        52     1        0.109348   302638.061475
        32        53     1        0.109348   302638.061475

[ angles ]
;       ai        aj        ak funct           theta             cth
         1         4         3     1      122.413124      713.183664
         1         4        34     1      118.685989      415.785479
         1         6         5     1      118.941978      697.082325
         1         6         7     1      120.418312      431.095455
         1        22        23     1      119.991798      509.193426
         1        22        25     1      120.158768      425.880075
         2         3         4     1      119.340256      642.053685
         2         3        11     1      121.254745      492.361087
         2         5         6     1      120.564919      663.113437
         2         5        10     1      118.281189      431.308051
         3         2         5     1      120.257889      537.525444
         3         2        33     1      121.917053      423.581575
         3         4        34     1      118.470383      447.200912
         3        11        12     1      126.297546      421.362209
         3        11        37     1      115.426346      433.799388
         4         1         6     1      118.274681      534.012463
         4         1        22     1      119.145592      472.282120
         4         3        11     1      119.236771      541.059908
         5         2        33     1      117.843239      439.647833
         5         6         7     1      120.208412      782.715594
         5        10         9     1      116.661819      559.934704
         6         1        22     1      122.735001      444.446511
         6         5        10     1      121.322975      705.924740
         6         7         8     1      117.611557      602.010986
         7         8         9     1      122.256546      732.863901
         7         8        35     1      117.339157      362.478902
         8         9        10     1      122.299545      738.442163
         8         9        36     1      120.145851      429.987368
         9         8        35     1      120.142014      430.475797
        10         9        36     1      117.380966      342.428057
        11        12        13     1      122.505417      578.362793
        11        12        17     1      121.389572      543.101089
        12        11        37     1      114.551170      450.222622
        12        13        14     1      124.232620      770.104221
        12        13        38     1      119.153419      415.430290
        12        17        16     1      120.275772      760.585008
        12        17        18     1      121.663406      744.979280
        13        12        17     1      115.672928      673.644813
        13        14        15     1      118.320412      693.264846
        14        13        38     1      116.504784      340.209553
        14        15        16     1      122.754715      730.070077
        14        15        39     1      116.530663      356.374447
        15        16        17     1      118.684891      679.603961
        15        16        40     1      121.212906      424.346476
        16        15        39     1      120.538696      415.343304
        16        17        18     1      117.699501      539.880923
        17        16        40     1      120.270653      343.599700
        17        18        19     1      107.938034      640.902280
        17        18        20     1      107.938034      640.902280
        17        18        21     1      103.486084      654.077513
        18        21        41     1      107.672241      569.998432
        18        21        42     1      107.672241      569.998432
        18        21        43     1      107.672241      569.998432
        19        18        20     1      120.015259      741.792185
        19        18        21     1      107.539917      732.341348
        20        18        21     1      107.539917      732.341348
        22        23        24     1      121.801224      641.863880
        22        23        44     1      118.687279      420.254601
        22        25        26     1      118.429382      750.214579
        22        25        46     1      120.035561      400.590228
        23        22        25     1      119.658249      634.730791
        23        24        27     1      119.235695      718.890569
        23        24        45     1      120.280472      430.417668
        24        23        44     1      119.736038      414.498696
        24        27        26     1      118.507507      714.526597
        24        27        28     1      134.776657      483.184678
        25        26        27     1      122.376198      655.006681
        25        26        30     1      129.898987      475.264088
        26        25        46     1      121.738304      408.810273
        26        27        28     1      106.721718      313.221712
        26        30        29     1      108.320457      397.763334
        26        30        31     1      125.510216      473.614103
        27        24        45     1      120.551697      432.635757
        27        26        30     1      107.817955      167.360000
        27        28        29     1      106.817116      436.712502
        27        28        47     1      127.264221      392.713499
        28        29        30     1      110.145126      257.776993
        28        29        48     1      129.961411      345.054038
        29        28        47     1      125.819458      397.423755
        29        30        31     1      125.823441      477.775886
        30        29        48     1      120.010437      425.731130
        30        31        32     1      112.817184      590.073282
        30        31        49     1      108.018456      510.299214
        30        31        50     1      108.018456      510.299214
        31        32        51     1      110.614952      500.187189
        31        32        52     1      110.614952      500.187189
        31        32        53     1      110.614952      500.187189
        32        31        49     1      110.391174      482.252414
        32        31        50     1      110.391174      482.252414
        41        21        42     1      111.147987      344.776258
        41        21        43     1      111.147987      344.776258
        42        21        43     1      111.147987      344.776258
        49        31        50     1      106.805321      353.688837
        51        32        52     1      108.358299      363.459399
        51        32        53     1      108.358299      363.459399
        52        32        53     1      108.358299      363.459399

[ dihedrals ] ; propers for gromacs 4.5 or higher, use funct 9
;       ai        aj        ak        al funct           phase               k        pn
         1         4         3         2     9        0.000000        0.164096         1
         1         4         3         2     9      180.000000       14.161053         2
         1         4         3         2     9        0.000000       -0.838172         3
         1         4         3         2     9      180.000000       -0.233555         4
         1         4         3        11     9        0.000000        0.210444         1
         1         4         3        11     9      180.000000       15.567579         2
         1         4         3        11     9        0.000000        0.101180         3
         1         4         3        11     9      180.000000       -0.446371         4
         1         6         5         2     9        0.000000        0.151864         1
         1         6         5         2     9      180.000000       11.489532         2
         1         6         5         2     9        0.000000       -0.456158         3
         1         6         5         2     9      180.000000       -0.212062         4
         1         6         5        10     9        0.000000       -0.330478         1
         1         6         5        10     9      180.000000       10.070724         2
         1         6         5        10     9        0.000000        0.089420         3
         1         6         5        10     9      180.000000       -0.272537         4
         1         6         7         8     9        0.000000        0.601589         1
         1         6         7         8     9      180.000000       16.401411         2
         1         6         7         8     9        0.000000        0.383469         3
         1         6         7         8     9      180.000000       -0.372567         4
         1        22        23        24     9        0.000000        0.279806         1
         1        22        23        24     9      180.000000       14.116177         2
         1        22        23        24     9        0.000000       -0.110734         3
         1        22        23        24     9      180.000000       -0.148110         4
         1        22        23        44     9        0.000000       -0.010357         1
         1        22        23        44     9      180.000000       12.522142         2
         1        22        23        44     9        0.000000       -0.209991         3
         1        22        23        44     9      180.000000        0.141486         4
         1        22        25        26     9        0.000000        0.107938         1
         1        22        25        26     9      180.000000       16.914600         2
         1        22        25        26     9        0.000000        0.106463         3
         1        22        25        26     9      180.000000       -0.606575         4
         1        22        25        46     9        0.000000       -0.042364         1
         1        22        25        46     9      180.000000       12.715629         2
         1        22        25        46     9        0.000000       -0.098548         3
         1        22        25        46     9      180.000000        0.143003         4
         2         3         4        34     9        0.000000       -0.064754         1
         2         3         4        34     9      180.000000       11.935983         2
         2         3         4        34     9        0.000000       -0.432953         3
         2         3         4        34     9      180.000000        0.110544         4
         2         3        11        12     9        0.000000       -0.167871         1
         2         3        11        12     9      180.000000        3.526327         2
         2         3        11        12     9        0.000000       -0.356690         3
         2         3        11        12     9      180.000000        0.139573         4
         2         3        11        37     9        0.000000       -0.457731         1
         2         3        11        37     9      180.000000        3.512783         2
         2         3        11        37     9        0.000000       -0.099181         3
         2         3        11        37     9      180.000000        0.073473         4
         2         5         6         7     9        0.000000        0.340548         1
         2         5         6         7     9      180.000000       11.179590         2
         2         5         6         7     9        0.000000       -0.065208         3
         2         5         6         7     9      180.000000       -0.244500         4
         2         5        10         9     9        0.000000       -0.023334         1
         2         5        10         9     9      180.000000       18.424194         2
         2         5        10         9     9        0.000000        0.154347         3
         2         5        10         9     9      180.000000       -0.275637         4
         3         2         5         6     9        0.000000       -0.535157         1
         3         2         5         6     9      180.000000       13.643161         2
         3         2         5         6     9        0.000000       -0.954560         3
         3         2         5         6     9      180.000000       -0.185752         4
         3         2         5        10     9        0.000000       -0.306896         1
         3         2         5        10     9      180.000000       14.010283         2
         3         2         5        10     9        0.000000       -0.425194         3
         3         2         5        10     9      180.000000       -0.392180         4
         3         4         1         6     9        0.000000       -0.222467         1
         3         4         1         6     9      180.000000       19.359643         2
         3         4         1         6     9        0.000000       -1.525309         3
         3         4         1         6     9      180.000000       -0.307919         4
         3         4         1        22     9        0.000000        0.336344         1
         3         4         1        22     9      180.000000       19.330281         2
         3         4         1        22     9        0.000000        0.018425         3
         3         4         1        22     9      180.000000       -0.798031         4
         3        11        12        13     9        0.000000        1.786047         1
         3        11        12        13     9      180.000000        3.116500         2
         3        11        12        13     9        0.000000       -0.286577         3
         3        11        12        13     9      180.000000        0.145436         4
         3        11        12        17     9        0.000000       -1.816149         1
         3        11        12        17     9      180.000000        4.619862         2
         3        11        12        17     9        0.000000       -0.590150         3
         3        11        12        17     9      180.000000        0.059912         4
         4         1         6         5     9        0.000000       -0.407537         1
         4         1         6         5     9      180.000000       10.542520         2
         4         1         6         5     9        0.000000       -0.867662         3
         4         1         6         5     9      180.000000        0.040791         4
         4         1         6         7     9        0.000000        0.050013         1
         4         1         6         7     9      180.000000        9.582071         2
         4         1         6         7     9        0.000000       -0.305997         3
         4         1         6         7     9      180.000000       -0.087278         4
         4         1        22        23     9        0.000000       -0.479631         1
         4         1        22        23     9      180.000000        4.596342         2
         4         1        22        23     9        0.000000       -0.037898         3
         4         1        22        23     9      180.000000        0.664984         4
         4         1        22        25     9        0.000000       -0.296317         1
         4         1        22        25     9      180.000000        4.565098         2
         4         1        22        25     9        0.000000        0.181580         3
         4         1        22        25     9      180.000000        0.576831         4
         4         3         2         5     9        0.000000       -0.172695         1
         4         3         2         5     9      180.000000       17.269977         2
         4         3         2         5     9        0.000000       -1.150047         3
         4         3         2         5     9      180.000000       -0.415713         4
         4         3         2        33     9        0.000000        0.057194         1
         4         3         2        33     9      180.000000       13.340744         2
         4         3         2        33     9        0.000000       -0.358398         3
         4         3         2        33     9      180.000000        0.131357         4
         4         3        11        12     9        0.000000       -0.235194         1
         4         3        11        12     9      180.000000        3.390104         2
         4         3        11        12     9        0.000000        0.020231         3
         4         3        11        12     9      180.000000        0.120802         4
         4         3        11        37     9        0.000000       -0.401552         1
         4         3        11        37     9      180.000000        3.316239         2
         4         3        11        37     9        0.000000        0.053715         3
         4         3        11        37     9      180.000000        0.093663         4
         5         2         3        11     9        0.000000        0.246511         1
         5         2         3        11     9      180.000000       19.522853         2
         5         2         3        11     9        0.000000        0.055608         3
         5         2         3        11     9      180.000000       -0.772829         4
         5         6         1        22     9        0.000000        0.119155         1
         5         6         1        22     9      180.000000       12.677563         2
         5         6         1        22     9        0.000000       -0.023199         3
         5         6         1        22     9      180.000000       -0.468567         4
         5         6         7         8     9        0.000000        0.188120         1
         5         6         7         8     9      180.000000       16.793790         2
         5         6         7         8     9        0.000000       -0.050993         3
         5         6         7         8     9      180.000000       -0.239062         4
         5        10         9         8     9        0.000000       -0.161990         1
         5        10         9         8     9      180.000000       25.805864         2
         5        10         9         8     9        0.000000       -0.989158         3
         5        10         9         8     9      180.000000       -0.201960         4
         5        10         9        36     9        0.000000        0.808513         1
         5        10         9        36     9      180.000000       23.535886         2
         5        10         9        36     9        0.000000        0.064004         3
         5        10         9        36     9      180.000000       -0.475717         4
         6         1         4        34     9        0.000000        0.197520         1
         6         1         4        34     9      180.000000       15.644651         2
         6         1         4        34     9        0.000000       -0.327288         3
         6         1         4        34     9      180.000000        0.175225         4
         6         1        22        23     9        0.000000       -0.007630         1
         6         1        22        23     9      180.000000        4.221758         2
         6         1        22        23     9        0.000000       -0.027697         3
         6         1        22        23     9      180.000000        0.767394         4
         6         1        22        25     9        0.000000       -0.385086         1
         6         1        22        25     9      180.000000        4.278510         2
         6         1        22        25     9        0.000000       -0.256051         3
         6         1        22        25     9      180.000000        0.844180         4
         6         5         2        33     9        0.000000       -0.170721         1
         6         5         2        33     9      180.000000       10.545502         2
         6         5         2        33     9        0.000000       -0.262492         3
         6         5         2        33     9      180.000000       -0.003795         4
         6         5        10         9     9        0.000000       -0.107916         1
         6         5        10         9     9      180.000000       16.440884         2
         6         5        10         9     9        0.000000        0.043441         3
         6         5        10         9     9      180.000000       -0.231039         4
         6         7         8         9     9        0.000000        0.103245         1
         6         7         8         9     9      180.000000       25.050131         2
         6         7         8         9     9        0.000000       -0.948796         3
         6         7         8         9     9      180.000000       -0.159021         4
         6         7         8        35     9        0.000000        0.727425         1
         6         7         8        35     9      180.000000       22.903268         2
         6         7         8        35     9        0.000000        0.106514         3
         6         7         8        35     9      180.000000       -0.552430         4
         7         6         1        22     9        0.000000       -0.537272         1
         7         6         1        22     9      180.000000       12.390915         2
         7         6         1        22     9        0.000000       -0.149751         3
         7         6         1        22     9      180.000000       -0.482238         4
         7         6         5        10     9        0.000000        0.159900         1
         7         6         5        10     9      180.000000       11.086216         2
         7         6         5        10     9        0.000000        0.160518         3
         7         6         5        10     9      180.000000       -0.397158         4
         7         8         9        10     9        0.000000       -0.713203         1
         7         8         9        10     9      180.000000       11.742392         2
         7         8         9        10     9        0.000000       -0.552181         3
         7         8         9        10     9      180.000000       -0.521535         4
         7         8         9        36     9        0.000000       -0.026031         1
         7         8         9        36     9      180.000000        9.508286         2
         7         8         9        36     9        0.000000       -0.255749         3
         7         8         9        36     9      180.000000       -0.134502         4
        10         5         2        33     9        0.000000        0.016940         1
        10         5         2        33     9      180.000000       11.980067         2
        10         5         2        33     9        0.000000       -0.349905         3
        10         5         2        33     9      180.000000        0.012863         4
        10         9         8        35     9        0.000000       -0.199022         1
        10         9         8        35     9      180.000000        9.267615         2
        10         9         8        35     9        0.000000       -0.318099         3
        10         9         8        35     9      180.000000       -0.090079         4
        11         3         2        33     9        0.000000       -0.006423         1
        11         3         2        33     9      180.000000       15.238159         2
        11         3         2        33     9        0.000000       -0.072526         3
        11         3         2        33     9      180.000000        0.161232         4
        11         3         4        34     9        0.000000       -0.058685         1
        11         3         4        34     9      180.000000       14.053045         2
        11         3         4        34     9        0.000000       -0.041461         3
        11         3         4        34     9      180.000000        0.138032         4
        11        12        13        14     9        0.000000        0.186749         1
        11        12        13        14     9      180.000000       16.683917         2
        11        12        13        14     9        0.000000        0.179116         3
        11        12        13        14     9      180.000000       -0.684725         4
        11        12        13        38     9        0.000000       -0.299543         1
        11        12        13        38     9      180.000000       14.371221         2
        11        12        13        38     9        0.000000       -0.253273         3
        11        12        13        38     9      180.000000        0.145399         4
        11        12        17        16     9        0.000000        0.142199         1
        11        12        17        16     9      180.000000       15.897986         2
        11        12        17        16     9        0.000000        0.030266         3
        11        12        17        16     9      180.000000       -0.460852         4
        11        12        17        18     9        0.000000       -0.927876         1
        11        12        17        18     9      180.000000       13.516794         2
        11        12        17        18     9        0.000000       -0.073923         3
        11        12        17        18     9      180.000000       -0.622706         4
        12        13        14        15     9        0.000000        0.319722         1
        12        13        14        15     9      180.000000       22.949103         2
        12        13        14        15     9        0.000000       -0.741217         3
        12        13        14        15     9      180.000000        0.175923         4
        12        17        16        15     9        0.000000       -0.049559         1
        12        17        16        15     9      180.000000       18.886873         2
        12        17        16        15     9        0.000000       -2.021566         3
        12        17        16        15     9      180.000000       -0.405198         4
        12        17        16        40     9        0.000000        0.229106         1
        12        17        16        40     9      180.000000       14.976780         2
        12        17        16        40     9        0.000000       -0.507225         3
        12        17        16        40     9      180.000000        0.085320         4
        12        17        18        19     9        0.000000       -1.334284         1
        12        17        18        19     9      180.000000        0.814377         2
        12        17        18        19     9        0.000000        0.785313         3
        12        17        18        19     9      180.000000       -0.187784         4
        12        17        18        20     9        0.000000       -1.334284         1
        12        17        18        20     9      180.000000        0.814377         2
        12        17        18        20     9        0.000000        0.785313         3
        12        17        18        20     9      180.000000       -0.187784         4
        12        17        18        21     9        0.000000        3.729086         1
        12        17        18        21     9      180.000000       -2.195929         2
        12        17        18        21     9        0.000000        0.799429         3
        12        17        18        21     9      180.000000        0.054293         4
        13        12        11        37     9        0.000000       -1.272588         1
        13        12        11        37     9      180.000000        2.989698         2
        13        12        11        37     9        0.000000       -0.423806         3
        13        12        11        37     9      180.000000        0.040258         4
        13        12        17        16     9        0.000000       -0.037262         1
        13        12        17        16     9      180.000000       14.380144         2
        13        12        17        16     9        0.000000       -0.900345         3
        13        12        17        16     9      180.000000       -0.221952         4
        13        12        17        18     9        0.000000        0.366401         1
        13        12        17        18     9      180.000000       11.025740         2
        13        12        17        18     9        0.000000        0.150288         3
        13        12        17        18     9      180.000000       -0.363523         4
        13        14        15        16     9        0.000000        0.177563         1
        13        14        15        16     9      180.000000       22.523862         2
        13        14        15        16     9        0.000000       -0.901752         3
        13        14        15        16     9      180.000000       -0.193725         4
        13        14        15        39     9        0.000000        0.988693         1
        13        14        15        39     9      180.000000       20.417146         2
        13        14        15        39     9        0.000000        0.253449         3
        13        14        15        39     9      180.000000       -0.430136         4
        14        13        12        17     9        0.000000       -0.510166         1
        14        13        12        17     9      180.000000       14.375530         2
        14        13        12        17     9        0.000000       -0.595358         3
        14        13        12        17     9      180.000000       -0.489937         4
        14        15        16        17     9        0.000000       -0.220826         1
        14        15        16        17     9      180.000000       18.549630         2
        14        15        16        17     9        0.000000       -1.222990         3
        14        15        16        17     9      180.000000       -0.581963         4
        14        15        16        40     9        0.000000        0.066372         1
        14        15        16        40     9      180.000000       14.573594         2
        14        15        16        40     9        0.000000       -0.318036         3
        14        15        16        40     9      180.000000       -0.017204         4
        15        14        13        38     9        0.000000        1.115355         1
        15        14        13        38     9      180.000000       20.962222         2
        15        14        13        38     9        0.000000        0.247396         3
        15        14        13        38     9      180.000000       -0.016300         4
        15        16        17        18     9        0.000000        0.192524         1
        15        16        17        18     9      180.000000       13.995355         2
        15        16        17        18     9        0.000000        0.189775         3
        15        16        17        18     9      180.000000       -0.443899         4
        16        17        18        19     9        0.000000       -0.090527         1
        16        17        18        19     9      180.000000        0.655865         2
        16        17        18        19     9        0.000000       -0.321290         3
        16        17        18        19     9      180.000000       -0.045698         4
        16        17        18        20     9        0.000000       -0.090527         1
        16        17        18        20     9      180.000000        0.655865         2
        16        17        18        20     9        0.000000       -0.321290         3
        16        17        18        20     9      180.000000       -0.045698         4
        16        17        18        21     9        0.000000        0.119865         1
        16        17        18        21     9      180.000000       -0.559451         2
        16        17        18        21     9        0.000000       -0.551232         3
        16        17        18        21     9      180.000000        0.255504         4
        17        12        11        37     9        0.000000        2.440458         1
        17        12        11        37     9      180.000000        3.205589         2
        17        12        11        37     9        0.000000       -0.727467         3
        17        12        11        37     9      180.000000        0.027702         4
        17        12        13        38     9        0.000000        0.058995         1
        17        12        13        38     9      180.000000       12.296400         2
        17        12        13        38     9        0.000000       -0.329284         3
        17        12        13        38     9      180.000000        0.069067         4
        17        16        15        39     9        0.000000        0.008007         1
        17        16        15        39     9      180.000000       14.871302         2
        17        16        15        39     9        0.000000       -0.365301         3
        17        16        15        39     9      180.000000       -0.122426         4
        17        18        21        41     9        0.000000        0.134670         1
        17        18        21        41     9      180.000000       -0.180389         2
        17        18        21        41     9        0.000000        0.326690         3
        17        18        21        41     9      180.000000       -0.016353         4
        17        18        21        42     9        0.000000        0.134670         1
        17        18        21        42     9      180.000000       -0.180389         2
        17        18        21        42     9        0.000000        0.326690         3
        17        18        21        42     9      180.000000       -0.016353         4
        17        18        21        43     9        0.000000        0.134670         1
        17        18        21        43     9      180.000000       -0.180389         2
        17        18        21        43     9        0.000000        0.326690         3
        17        18        21        43     9      180.000000       -0.016353         4
        18        17        16        40     9        0.000000       -0.032266         1
        18        17        16        40     9      180.000000       12.082714         2
        18        17        16        40     9        0.000000       -0.269976         3
        18        17        16        40     9      180.000000        0.014566         4
        19        18        21        41     9        0.000000       -0.020339         1
        19        18        21        41     9      180.000000       -0.042567         2
        19        18        21        41     9        0.000000        0.357266         3
        19        18        21        41     9      180.000000        0.004050         4
        19        18        21        42     9        0.000000       -0.020339         1
        19        18        21        42     9      180.000000       -0.042567         2
        19        18        21        42     9        0.000000        0.357266         3
        19        18        21        42     9      180.000000        0.004050         4
        19        18        21        43     9        0.000000       -0.020339         1
        19        18        21        43     9      180.000000       -0.042567         2
        19        18        21        43     9        0.000000        0.357266         3
        19        18        21        43     9      180.000000        0.004050         4
        20        18        21        41     9        0.000000       -0.020339         1
        20        18        21        41     9      180.000000       -0.042567         2
        20        18        21        41     9        0.000000        0.357266         3
        20        18        21        41     9      180.000000        0.004050         4
        20        18        21        42     9        0.000000       -0.020339         1
        20        18        21        42     9      180.000000       -0.042567         2
        20        18        21        42     9        0.000000        0.357266         3
        20        18        21        42     9      180.000000        0.004050         4
        20        18        21        43     9        0.000000       -0.020339         1
        20        18        21        43     9      180.000000       -0.042567         2
        20        18        21        43     9        0.000000        0.357266         3
        20        18        21        43     9      180.000000        0.004050         4
        22         1         4        34     9        0.000000        0.009108         1
        22         1         4        34     9      180.000000       14.924329         2
        22         1         4        34     9        0.000000       -0.149141         3
        22         1         4        34     9      180.000000        0.103227         4
        22        23        24        27     9        0.000000       -0.149064         1
        22        23        24        27     9      180.000000       21.254181         2
        22        23        24        27     9        0.000000       -1.658121         3
        22        23        24        27     9      180.000000       -0.538861         4
        22        23        24        45     9        0.000000        0.009880         1
        22        23        24        45     9      180.000000       15.243821         2
        22        23        24        45     9        0.000000       -0.469502         3
        22        23        24        45     9      180.000000        0.094908         4
        22        25        26        27     9        0.000000       -0.027625         1
        22        25        26        27     9      180.000000       17.477689         2
        22        25        26        27     9        0.000000       -1.635521         3
        22        25        26        27     9      180.000000       -0.381603         4
        22        25        26        30     9        0.000000        0.077706         1
        22        25        26        30     9      180.000000       16.404214         2
        22        25        26        30     9        0.000000       -0.482529         3
        22        25        26        30     9      180.000000       -0.460391         4
        23        22        25        26     9        0.000000       -0.183655         1
        23        22        25        26     9      180.000000       20.721411         2
        23        22        25        26     9        0.000000       -1.697198         3
        23        22        25        26     9      180.000000       -0.512485         4
        23        22        25        46     9        0.000000        0.063737         1
        23        22        25        46     9      180.000000       13.931113         2
        23        22        25        46     9        0.000000       -0.471968         3
        23        22        25        46     9      180.000000        0.103906         4
        23        24        27        26     9        0.000000       -0.058348         1
        23        24        27        26     9      180.000000       19.183522         2
        23        24        27        26     9        0.000000       -2.023809         3
        23        24        27        26     9      180.000000       -0.400513         4
        23        24        27        28     9        0.000000        0.115859         1
        23        24        27        28     9      180.000000       13.419553         2
        23        24        27        28     9        0.000000       -0.491323         3
        23        24        27        28     9      180.000000       -0.163169         4
        24        23        22        25     9        0.000000       -0.065890         1
        24        23        22        25     9      180.000000       17.442235         2
        24        23        22        25     9        0.000000       -1.317963         3
        24        23        22        25     9      180.000000       -0.338269         4
        24        27        26        25     9        0.000000       -0.110976         1
        24        27        26        25     9      180.000000       10.837939         2
        24        27        26        25     9        0.000000       -1.510985         3
        24        27        26        25     9      180.000000       -0.094086         4
        24        27        26        30     9        0.000000        0.444704         1
        24        27        26        30     9      180.000000       11.155428         2
        24        27        26        30     9        0.000000       -2.370505         3
        24        27        26        30     9      180.000000       -0.090120         4
        24        27        28        29     9        0.000000        0.283204         1
        24        27        28        29     9      180.000000        4.440497         2
        24        27        28        29     9        0.000000       -0.581168         3
        24        27        28        29     9      180.000000        0.003552         4
        24        27        28        47     9        0.000000       -0.603482         1
        24        27        28        47     9      180.000000        4.378859         2
        24        27        28        47     9        0.000000       -0.144623         3
        24        27        28        47     9      180.000000        0.158581         4
        25        22        23        44     9        0.000000        0.065410         1
        25        22        23        44     9      180.000000       13.313827         2
        25        22        23        44     9        0.000000       -0.602075         3
        25        22        23        44     9      180.000000        0.156790         4
        25        26        27        28     9        0.000000        0.269029         1
        25        26        27        28     9      180.000000        9.971677         2
        25        26        27        28     9        0.000000       -1.518612         3
        25        26        27        28     9      180.000000       -0.019314         4
        25        26        30        29     9        0.000000       -0.053506         1
        25        26        30        29     9      180.000000        2.729666         2
        25        26        30        29     9        0.000000        0.202593         3
        25        26        30        29     9      180.000000        0.175426         4
        25        26        30        31     9        0.000000       -0.800551         1
        25        26        30        31     9      180.000000        2.300014         2
        25        26        30        31     9        0.000000       -0.124132         3
        25        26        30        31     9      180.000000        0.237302         4
        26        27        24        45     9        0.000000        0.134207         1
        26        27        24        45     9      180.000000       13.477640         2
        26        27        24        45     9        0.000000       -0.367526         3
        26        27        24        45     9      180.000000       -0.079194         4
        26        27        28        29     9        0.000000       -0.027943         1
        26        27        28        29     9      180.000000       28.233385         2
        26        27        28        29     9        0.000000       -8.604380         3
        26        27        28        29     9      180.000000       -0.234652         4
        26        27        28        47     9        0.000000        0.574666         1
        26        27        28        47     9      180.000000       10.156410         2
        26        27        28        47     9        0.000000        0.264348         3
        26        27        28        47     9      180.000000       -0.235526         4
        26        30        29        28     9        0.000000        0.176006         1
        26        30        29        28     9      180.000000       23.999696         2
        26        30        29        28     9        0.000000       -5.746560         3
        26        30        29        28     9      180.000000       -0.509158         4
        26        30        29        48     9        0.000000        1.167842         1
        26        30        29        48     9      180.000000        9.257208         2
        26        30        29        48     9        0.000000        0.538175         3
        26        30        29        48     9      180.000000       -0.175898         4
        26        30        31        32     9        0.000000       -0.022031         1
        26        30        31        32     9      180.000000       -0.376139         2
        26        30        31        32     9        0.000000        0.630675         3
        26        30        31        32     9      180.000000        0.015781         4
        26        30        31        49     9        0.000000        0.080299         1
        26        30        31        49     9      180.000000        0.065638         2
        26        30        31        49     9        0.000000        0.638554         3
        26        30        31        49     9      180.000000        0.047311         4
        26        30        31        50     9        0.000000        0.080299         1
        26        30        31        50     9      180.000000        0.065638         2
        26        30        31        50     9        0.000000        0.638554         3
        26        30        31        50     9      180.000000        0.047311         4
        27        24        23        44     9        0.000000        0.099323         1
        27        24        23        44     9      180.000000       16.477580         2
        27        24        23        44     9        0.000000       -0.492856         3
        27        24        23        44     9      180.000000       -0.011794         4
        27        26        25        46     9        0.000000        0.205005         1
        27        26        25        46     9      180.000000       12.402126         2
        27        26        25        46     9        0.000000       -0.130118         3
        27        26        25        46     9      180.000000       -0.017339         4
        27        26        30        29     9        0.000000        0.040139         1
        27        26        30        29     9      180.000000       20.815324         2
        27        26        30        29     9        0.000000       -5.381718         3
        27        26        30        29     9      180.000000       -0.050136         4
        27        26        30        31     9        0.000000       -0.119776         1
        27        26        30        31     9      180.000000        2.686197         2
        27        26        30        31     9        0.000000        0.555056         3
        27        26        30        31     9      180.000000        0.170205         4
        27        28        29        30     9        0.000000       -0.252846         1
        27        28        29        30     9      180.000000       31.978522         2
        27        28        29        30     9        0.000000       -6.140853         3
        27        28        29        30     9      180.000000       -0.818330         4
        27        28        29        48     9        0.000000        0.030733         1
        27        28        29        48     9      180.000000       17.218552         2
        27        28        29        48     9        0.000000       -0.294048         3
        27        28        29        48     9      180.000000       -0.458488         4
        28        27        24        45     9        0.000000       -0.074173         1
        28        27        24        45     9      180.000000       10.441988         2
        28        27        24        45     9        0.000000        0.061748         3
        28        27        24        45     9      180.000000        0.074756         4
        28        27        26        30     9        0.000000        0.423885         1
        28        27        26        30     9      180.000000       17.872529         2
        28        27        26        30     9        0.000000       -5.895553         3
        28        27        26        30     9      180.000000       -0.248799         4
        28        29        30        31     9        0.000000        0.608362         1
        28        29        30        31     9      180.000000        4.298689         2
        28        29        30        31     9        0.000000        0.779167         3
        28        29        30        31     9      180.000000        0.091941         4
        29        30        31        32     9        0.000000        0.435322         1
        29        30        31        32     9      180.000000        0.062418         2
        29        30        31        32     9        0.000000        0.259178         3
        29        30        31        32     9      180.000000        0.038947         4
        29        30        31        49     9        0.000000       -0.142528         1
        29        30        31        49     9      180.000000        0.043607         2
        29        30        31        49     9        0.000000        0.269776         3
        29        30        31        49     9      180.000000        0.089883         4
        29        30        31        50     9        0.000000       -0.142528         1
        29        30        31        50     9      180.000000        0.043607         2
        29        30        31        50     9        0.000000        0.269776         3
        29        30        31        50     9      180.000000        0.089883         4
        30        26        25        46     9        0.000000        0.187943         1
        30        26        25        46     9      180.000000       11.594815         2
        30        26        25        46     9        0.000000       -0.071736         3
        30        26        25        46     9      180.000000        0.069385         4
        30        29        28        47     9        0.000000       -0.112854         1
        30        29        28        47     9      180.000000       16.078380         2
        30        29        28        47     9        0.000000       -0.400051         3
        30        29        28        47     9      180.000000       -0.340635         4
        30        31        32        51     9        0.000000        0.190705         1
        30        31        32        51     9      180.000000        0.035311         2
        30        31        32        51     9        0.000000        0.581019         3
        30        31        32        51     9      180.000000        0.063147         4
        30        31        32        52     9        0.000000        0.190705         1
        30        31        32        52     9      180.000000        0.035311         2
        30        31        32        52     9        0.000000        0.581019         3
        30        31        32        52     9      180.000000        0.063147         4
        30        31        32        53     9        0.000000        0.190705         1
        30        31        32        53     9      180.000000        0.035311         2
        30        31        32        53     9        0.000000        0.581019         3
        30        31        32        53     9      180.000000        0.063147         4
        31        30        29        48     9        0.000000       -0.482858         1
        31        30        29        48     9      180.000000        2.181947         2
        31        30        29        48     9        0.000000        0.290244         3
        31        30        29        48     9      180.000000       -0.033130         4
        35         8         9        36     9        0.000000       -0.431715         1
        35         8         9        36     9      180.000000        6.869070         2
        35         8         9        36     9        0.000000       -0.569257         3
        35         8         9        36     9      180.000000        0.186659         4
        39        15        16        40     9        0.000000       -0.049751         1
        39        15        16        40     9      180.000000       11.944933         2
        39        15        16        40     9        0.000000       -0.710210         3
        39        15        16        40     9      180.000000        0.205813         4
        44        23        24        45     9        0.000000       -0.056311         1
        44        23        24        45     9      180.000000       12.658450         2
        44        23        24        45     9        0.000000       -0.675856         3
        44        23        24        45     9      180.000000        0.271777         4
        47        28        29        48     9        0.000000       -0.075433         1
        47        28        29        48     9      180.000000       10.374218         2
        47        28        29        48     9        0.000000       -0.436971         3
        47        28        29        48     9      180.000000        0.139048         4
        49        31        32        51     9        0.000000       -0.033310         1
        49        31        32        51     9      180.000000        0.012907         2
        49        31        32        51     9        0.000000        0.597202         3
        49        31        32        51     9      180.000000       -0.010584         4
        49        31        32        52     9        0.000000       -0.033310         1
        49        31        32        52     9      180.000000        0.012907         2
        49        31        32        52     9        0.000000        0.597202         3
        49        31        32        52     9      180.000000       -0.010584         4
        49        31        32        53     9        0.000000       -0.033310         1
        49        31        32        53     9      180.000000        0.012907         2
        49        31        32        53     9        0.000000        0.597202         3
        49        31        32        53     9      180.000000       -0.010584         4
        50        31        32        51     9        0.000000       -0.033310         1
        50        31        32        51     9      180.000000        0.012907         2
        50        31        32        51     9        0.000000        0.597202         3
        50        31        32        51     9      180.000000       -0.010584         4
        50        31        32        52     9        0.000000       -0.033310         1
        50        31        32        52     9      180.000000        0.012907         2
        50        31        32        52     9        0.000000        0.597202         3
        50        31        32        52     9      180.000000       -0.010584         4
        50        31        32        53     9        0.000000       -0.033310         1
        50        31        32        53     9      180.000000        0.012907         2
        50        31        32        53     9        0.000000        0.597202         3
        50        31        32        53     9      180.000000       -0.010584         4

[ dihedrals ] ; impropers
;       ai        aj        ak        al funct           phase               k        pn
         8         7         9        35     4      180.000000        4.409855         2
         8         9        35         7     4      180.000000        4.409855         2
         8        35         7         9     4      180.000000        4.409855         2
         9         8        10        36     4      180.000000        4.162411         2
         9        10        36         8     4      180.000000        4.162411         2
         9        36         8        10     4      180.000000        4.162411         2
        13        12        14        38     4      180.000000        3.547249         2
        13        14        38        12     4      180.000000        3.547249         2
        13        38        12        14     4      180.000000        3.547249         2
        15        14        16        39     4      180.000000        3.347115         2
        15        16        39        14     4      180.000000        3.347115         2
        15        39        14        16     4      180.000000        3.347115         2

[ pairs ]
;       ai        aj funct
         1         2     1
         1         8     1
         1        10     1
         1        11     1
         1        24     1
         1        26     1
         1        44     1
         1        46     1
         2         7     1
         2         9     1
         2        12     1
         2        34     1
         2        37     1
         3         6     1
         3        10     1
         3        13     1
         3        17     1
         3        22     1
         4         5     1
         4         7     1
         4        12     1
         4        23     1
         4        25     1
         4        33     1
         4        37     1
         5         8     1
         5        11     1
         5        22     1
         5        36     1
         6         9     1
         6        23     1
         6        25     1
         6        33     1
         6        34     1
         6        35     1
         7        10     1
         7        22     1
         7        36     1
        10        33     1
        10        35     1
        11        14     1
        11        16     1
        11        18     1
        11        33     1
        11        34     1
        11        38     1
        12        15     1
        12        19     1
        12        20     1
        12        21     1
        12        40     1
        13        16     1
        13        18     1
        13        37     1
        13        39     1
        14        17     1
        14        40     1
        15        18     1
        15        38     1
        16        19     1
        16        20     1
        16        21     1
        17        37     1
        17        38     1
        17        39     1
        17        41     1
        17        42     1
        17        43     1
        18        40     1
        19        41     1
        19        42     1
        19        43     1
        20        41     1
        20        42     1
        20        43     1
        22        27     1
        22        30     1
        22        34     1
        22        45     1
        23        26     1
        23        28     1
        23        46     1
        24        25     1
        24        29     1
        24        30     1
        24        47     1
        25        28     1
        25        29     1
        25        31     1
        25        44     1
        26        32     1
        26        45     1
        26        47     1
        26        48     1
        26        49     1
        26        50     1
        27        31     1
        27        44     1
        27        46     1
        27        48     1
        28        31     1
        28        45     1
        29        32     1
        29        49     1
        29        50     1
        30        46     1
        30        47     1
        30        51     1
        30        52     1
        30        53     1
        31        48     1
        35        36     1
        39        40     1
        44        45     1
        47        48     1
        49        51     1
        49        52     1
        49        53     1
        50        51     1
        50        52     1
        50        53     1
