; ITP file created by ByteFF-ML, 2026-02-21 07:43:47.653410

[ atomtypes ]
;name           bonded.type        at.num        mass        charge   ptype           sigma         epsilon
 c0bf                                   6      0.0000       0.00000       A     3.31169e-01     4.10704e-01
 c1bf                                   6      0.0000       0.00000       A     3.31696e-01     4.13508e-01
 c2bf                                   6      0.0000       0.00000       A     3.31534e-01     4.11219e-01
 c3bf                                   6      0.0000       0.00000       A     3.31588e-01     4.14304e-01
 c4bf                                   6      0.0000       0.00000       A     3.31387e-01     4.12836e-01
 c5bf                                   6      0.0000       0.00000       A     3.31581e-01     4.11588e-01
 n6bf                                   7      0.0000       0.00000       A     3.38246e-01     3.93082e-01
 c7bf                                   6      0.0000       0.00000       A     3.31514e-01     4.13144e-01
 c8bf                                   6      0.0000       0.00000       A     3.31562e-01     4.13392e-01
 n9bf                                   7      0.0000       0.00000       A     3.38456e-01     3.92772e-01
 c10bf                                  6      0.0000       0.00000       A     3.31420e-01     4.09858e-01
 c11bf                                  6      0.0000       0.00000       A     3.31417e-01     4.13037e-01
 c12bf                                  6      0.0000       0.00000       A     3.31516e-01     4.13372e-01
 c13bf                                  6      0.0000       0.00000       A     3.31258e-01     4.14143e-01
 n14bf                                  7      0.0000       0.00000       A     3.27929e-01     6.45227e-01
 c15bf                                  6      0.0000       0.00000       A     3.31581e-01     4.12886e-01
 c16bf                                  6      0.0000       0.00000       A     3.31706e-01     4.11679e-01
 n17bf                                  7      0.0000       0.00000       A     3.38344e-01     3.92967e-01
 c18bf                                  6      0.0000       0.00000       A     3.31482e-01     4.12140e-01
 c19bf                                  6      0.0000       0.00000       A     3.31194e-01     4.12903e-01
 c20bf                                  6      0.0000       0.00000       A     3.31298e-01     4.15822e-01
 s21bf                                 16      0.0000       0.00000       A     4.05645e-01     2.55727e-01
 o22bf                                  8      0.0000       0.00000       A     3.04857e-01     6.11370e-01
 o23bf                                  8      0.0000       0.00000       A     3.04857e-01     6.11370e-01
 c24bf                                  6      0.0000       0.00000       A     3.39611e-01     4.49156e-01
 c25bf                                  6      0.0000       0.00000       A     3.31441e-01     4.12988e-01
 c26bf                                  6      0.0000       0.00000       A     3.31390e-01     4.13249e-01
 c27bf                                  6      0.0000       0.00000       A     3.31440e-01     4.13428e-01
 c28bf                                  6      0.0000       0.00000       A     3.31439e-01     4.11842e-01
 n29bf                                  7      0.0000       0.00000       A     3.20747e-01     8.52588e-01
 c30bf                                  6      0.0000       0.00000       A     3.39672e-01     4.52430e-01
 c31bf                                  6      0.0000       0.00000       A     3.39795e-01     4.52187e-01
 c32bf                                  6      0.0000       0.00000       A     3.39760e-01     4.50154e-01
 h33bf                                  1      0.0000       0.00000       A     2.62399e-01     6.76733e-02
 h34bf                                  1      0.0000       0.00000       A     2.62381e-01     6.75967e-02
 h35bf                                  1      0.0000       0.00000       A     2.53506e-01     6.72855e-02
 h36bf                                  1      0.0000       0.00000       A     2.53506e-01     6.72855e-02
 h37bf                                  1      0.0000       0.00000       A     2.62523e-01     6.73238e-02
 h38bf                                  1      0.0000       0.00000       A     2.62498e-01     6.69232e-02
 h39bf                                  1      0.0000       0.00000       A     2.62405e-01     6.76334e-02
 h40bf                                  1      0.0000       0.00000       A     1.10952e-01     4.04428e-02
 h41bf                                  1      0.0000       0.00000       A     2.53583e-01     6.80915e-02
 h42bf                                  1      0.0000       0.00000       A     2.53644e-01     6.69998e-02
 h43bf                                  1      0.0000       0.00000       A     2.62744e-01     6.79622e-02
 h44bf                                  1      0.0000       0.00000       A     2.42021e-01     8.71597e-02
 h45bf                                  1      0.0000       0.00000       A     2.42021e-01     8.71597e-02
 h46bf                                  1      0.0000       0.00000       A     2.42021e-01     8.71597e-02
 h47bf                                  1      0.0000       0.00000       A     2.62695e-01     6.74962e-02
 h48bf                                  1      0.0000       0.00000       A     2.53864e-01     6.69407e-02
 h49bf                                  1      0.0000       0.00000       A     2.42324e-01     8.67384e-02
 h50bf                                  1      0.0000       0.00000       A     2.42324e-01     8.67384e-02
 h51bf                                  1      0.0000       0.00000       A     2.60098e-01     8.76082e-02
 h52bf                                  1      0.0000       0.00000       A     2.60098e-01     8.76082e-02
 h53bf                                  1      0.0000       0.00000       A     2.60012e-01     8.73257e-02
 h54bf                                  1      0.0000       0.00000       A     2.60012e-01     8.73257e-02
 h55bf                                  1      0.0000       0.00000       A     2.60012e-01     8.73257e-02

[ moleculetype ]
;name             nrexcl
 53_flip               3

[ atoms ]
;       nr            type      resi   res      atom      cgnr      charge          mass ; qtot
         1            c0bf         1   UNL        c0         1     0.02972       12.0110 ; qtot    0.030
         2            c1bf         1   UNL        c1         2    -0.14199       12.0110 ; qtot   -0.112
         3            c2bf         1   UNL        c2         3     0.30813       12.0110 ; qtot    0.196
         4            c3bf         1   UNL        c3         4    -0.13115       12.0110 ; qtot    0.065
         5            c4bf         1   UNL        c4         5     0.25847       12.0110 ; qtot    0.323
         6            c5bf         1   UNL        c5         6     0.21965       12.0110 ; qtot    0.543
         7            n6bf         1   UNL        n6         7    -0.62228       14.0070 ; qtot   -0.079
         8            c7bf         1   UNL        c7         8     0.29317       12.0110 ; qtot    0.214
         9            c8bf         1   UNL        c8         9     0.29405       12.0110 ; qtot    0.508
        10            n9bf         1   UNL        n9        10    -0.62285       14.0070 ; qtot   -0.115
        11           c10bf         1   UNL       c10        11    -0.02764       12.0110 ; qtot   -0.143
        12           c11bf         1   UNL       c11        12    -0.11542       12.0110 ; qtot   -0.258
        13           c12bf         1   UNL       c12        13    -0.07119       12.0110 ; qtot   -0.329
        14           c13bf         1   UNL       c13        14    -0.10222       12.0110 ; qtot   -0.432
        15           n14bf         1   UNL       n14        15    -0.96404       14.0070 ; qtot   -1.396
        16           c15bf         1   UNL       c15        16     0.35358       12.0110 ; qtot   -1.042
        17           c16bf         1   UNL       c16        17     0.27846       12.0110 ; qtot   -0.764
        18           n17bf         1   UNL       n17        18    -0.60355       14.0070 ; qtot   -1.367
        19           c18bf         1   UNL       c18        19     0.28639       12.0110 ; qtot   -1.081
        20           c19bf         1   UNL       c19        20    -0.03902       12.0110 ; qtot   -1.120
        21           c20bf         1   UNL       c20        21    -0.27733       12.0110 ; qtot   -1.397
        22           s21bf         1   UNL       s21        22     0.99436       32.0670 ; qtot   -0.403
        23           o22bf         1   UNL       o22        23    -0.51400       15.9990 ; qtot   -0.917
        24           o23bf         1   UNL       o23        24    -0.51400       15.9990 ; qtot   -1.431
        25           c24bf         1   UNL       c24        25    -0.29607       12.0110 ; qtot   -1.727
        26           c25bf         1   UNL       c25        26    -0.04764       12.0110 ; qtot   -1.774
        27           c26bf         1   UNL       c26        27    -0.09293       12.0110 ; qtot   -1.867
        28           c27bf         1   UNL       c27        28    -0.23977       12.0110 ; qtot   -2.107
        29           c28bf         1   UNL       c28        29    -0.15037       12.0110 ; qtot   -2.257
        30           n29bf         1   UNL       n29        30    -0.10824       14.0070 ; qtot   -2.366
        31           c30bf         1   UNL       c30        31     0.07652       12.0110 ; qtot   -2.289
        32           c31bf         1   UNL       c31        32    -0.10127       12.0110 ; qtot   -2.390
        33           c32bf         1   UNL       c32        33    -0.09205       12.0110 ; qtot   -2.483
        34           h33bf         1   UNL       h33        34     0.14328        1.0080 ; qtot   -2.339
        35           h34bf         1   UNL       h34        35     0.12730        1.0080 ; qtot   -2.212
        36           h35bf         1   UNL       h35        36     0.03158        1.0080 ; qtot   -2.180
        37           h36bf         1   UNL       h36        37     0.03160        1.0080 ; qtot   -2.149
        38           h37bf         1   UNL       h37        38     0.12044        1.0080 ; qtot   -2.028
        39           h38bf         1   UNL       h38        39     0.11787        1.0080 ; qtot   -1.910
        40           h39bf         1   UNL       h39        40     0.12810        1.0080 ; qtot   -1.782
        41           h40bf         1   UNL       h40        41     0.51181        1.0080 ; qtot   -1.271
        42           h41bf         1   UNL       h41        42     0.03589        1.0080 ; qtot   -1.235
        43           h42bf         1   UNL       h42        43     0.03700        1.0080 ; qtot   -1.198
        44           h43bf         1   UNL       h43        44     0.15079        1.0080 ; qtot   -1.047
        45           h44bf         1   UNL       h44        45     0.10467        1.0080 ; qtot   -0.942
        46           h45bf         1   UNL       h45        46     0.10467        1.0080 ; qtot   -0.838
        47           h46bf         1   UNL       h46        47     0.10467        1.0080 ; qtot   -0.733
        48           h47bf         1   UNL       h47        48     0.20481        1.0080 ; qtot   -0.528
        49           h48bf         1   UNL       h48        49     0.20843        1.0080 ; qtot   -0.320
        50           h49bf         1   UNL       h49        50     0.05598        1.0080 ; qtot   -0.264
        51           h50bf         1   UNL       h50        51     0.05598        1.0080 ; qtot   -0.208
        52           h51bf         1   UNL       h51        52     0.04950        1.0080 ; qtot   -0.158
        53           h52bf         1   UNL       h52        53     0.04950        1.0080 ; qtot   -0.109
        54           h53bf         1   UNL       h53        54     0.03623        1.0080 ; qtot   -0.072
        55           h54bf         1   UNL       h54        55     0.03623        1.0080 ; qtot   -0.036
        56           h55bf         1   UNL       h55        56     0.03619        1.0080 ; qtot   -0.000

[ bonds ]
;       ai        aj funct               r               k
         1         4     1        0.138628   330545.857324
         1         6     1        0.143443   237124.982324
         1        11     1        0.148398   213063.534814
         2         3     1        0.138622   325678.790723
         2         5     1        0.141521   284459.010498
         2        34     1        0.108434   324306.120020
         3         4     1        0.142346   251378.111328
         3        15     1        0.140593   260287.089453
         4        35     1        0.108420   321509.091504
         5         6     1        0.143386   223579.461084
         5        10     1        0.136675   270922.835840
         6         7     1        0.136378   268382.250977
         7         8     1        0.131881   374103.202393
         8         9     1        0.142216   238192.510107
         8        36     1        0.108820   315940.162988
         9        10     1        0.131846   380187.239941
         9        37     1        0.108836   315483.763770
        11        12     1        0.142023   258564.560352
        11        14     1        0.140122   292184.598975
        12        13     1        0.138890   334507.684473
        12        38     1        0.108507   320582.503027
        13        27     1        0.140749   301618.517920
        13        39     1        0.108659   317447.771777
        14        26     1        0.139829   309067.335205
        14        40     1        0.108424   321956.297363
        15        16     1        0.138908   287909.073975
        15        41     1        0.101485   406811.259766
        16        17     1        0.141520   257222.712939
        16        21     1        0.141314   265581.366357
        17        18     1        0.133244   341315.137256
        17        42     1        0.108642   319937.154736
        18        19     1        0.133977   313656.558057
        19        20     1        0.139506   299656.731641
        19        43     1        0.108702   319547.177539
        20        21     1        0.139402   313134.068799
        20        44     1        0.108446   326160.114160
        21        22     1        0.180715   124483.627490
        22        23     1        0.147464   495020.215039
        22        24     1        0.147464   495020.215039
        22        25     1        0.180772   140787.539600
        25        45     1        0.109028   319230.108789
        25        46     1        0.109028   319230.108789
        25        47     1        0.109028   319230.108789
        26        27     1        0.142564   240189.997266
        26        30     1        0.138559   256021.013184
        27        28     1        0.143796   249226.763086
        28        29     1        0.137536   381868.092480
        28        48     1        0.108172   334371.469531
        29        30     1        0.138712   272929.465283
        29        49     1        0.108207   332605.961475
        30        31     1        0.145462   213107.343726
        31        32     1        0.153546   182236.106787
        31        50     1        0.109412   296703.977832
        31        51     1        0.109412   296703.977832
        32        33     1        0.153271   191841.711719
        32        52     1        0.109543   296004.490869
        32        53     1        0.109543   296004.490869
        33        54     1        0.109455   298636.983789
        33        55     1        0.109455   298636.983789
        33        56     1        0.109455   298636.983789

[ angles ]
;       ai        aj        ak funct           theta             cth
         1         4         3     1      122.413124      713.183664
         1         4        35     1      118.685989      415.785479
         1         6         5     1      118.941978      697.082325
         1         6         7     1      120.418312      431.095455
         1        11        12     1      119.991798      509.193426
         1        11        14     1      120.158768      425.880075
         2         3         4     1      119.340256      642.053685
         2         3        15     1      121.254745      492.361087
         2         5         6     1      120.564919      663.113437
         2         5        10     1      118.281189      431.308051
         3         2         5     1      120.257889      537.525444
         3         2        34     1      121.917053      423.581575
         3         4        35     1      118.470383      447.200848
         3        15        16     1      126.297546      421.362209
         3        15        41     1      115.426346      433.799388
         4         1         6     1      118.274681      534.012463
         4         1        11     1      119.145592      472.282120
         4         3        15     1      119.236771      541.059908
         5         2        34     1      117.843239      439.647833
         5         6         7     1      120.208412      782.715594
         5        10         9     1      116.661819      559.934704
         6         1        11     1      122.735001      444.446511
         6         5        10     1      121.322975      705.924740
         6         7         8     1      117.611557      602.010986
         7         8         9     1      122.256546      732.863901
         7         8        36     1      117.339157      362.478934
         8         9        10     1      122.299545      738.442163
         8         9        37     1      120.145851      429.987368
         9         8        36     1      120.142014      430.475797
        10         9        37     1      117.380966      342.428057
        11        12        13     1      121.801224      641.863880
        11        12        38     1      118.687279      420.254569
        11        14        26     1      118.427811      749.290264
        11        14        40     1      120.035561      400.590228
        12        11        14     1      119.658249      634.730791
        12        13        27     1      119.235695      718.890569
        12        13        39     1      120.280472      430.417668
        13        12        38     1      119.736038      414.498728
        13        27        26     1      118.511497      714.518552
        13        27        28     1      134.776657      483.184646
        14        26        27     1      122.371658      654.838200
        14        26        30     1      129.947098      474.857378
        15        16        17     1      122.505417      578.362793
        15        16        21     1      121.389572      543.101089
        16        15        41     1      114.551170      450.222622
        16        17        18     1      124.232620      770.104221
        16        17        42     1      119.153419      415.430290
        16        21        20     1      120.275772      760.585008
        16        21        22     1      121.663406      744.979280
        17        16        21     1      115.672928      673.644813
        17        18        19     1      118.320412      693.264846
        18        17        42     1      116.504784      340.209521
        18        19        20     1      122.754715      730.070077
        18        19        43     1      116.530663      356.374383
        19        20        21     1      118.684891      679.603961
        19        20        44     1      121.212906      424.346476
        20        19        43     1      120.538696      415.343272
        20        21        22     1      117.699501      539.880923
        21        20        44     1      120.270653      343.599700
        21        22        23     1      107.938034      640.902280
        21        22        24     1      107.938034      640.902280
        21        22        25     1      103.486084      654.077513
        22        25        45     1      107.672241      569.998432
        22        25        46     1      107.672241      569.998432
        22        25        47     1      107.672241      569.998432
        23        22        24     1      120.015259      741.792185
        23        22        25     1      107.539917      732.341348
        24        22        25     1      107.539917      732.341348
        26        14        40     1      121.753464      408.102320
        26        27        28     1      106.716980      313.123777
        26        30        29     1      108.285690      394.654638
        26        30        31     1      125.551598      470.077565
        27        13        39     1      120.551697      432.635757
        27        26        30     1      107.803421      167.360000
        27        28        29     1      106.827347      437.729102
        27        28        48     1      127.264221      392.713499
        28        29        30     1      110.127464      257.020615
        28        29        49     1      129.966446      344.981896
        29        28        48     1      125.821182      397.012831
        29        30        31     1      125.886520      483.191637
        30        29        49     1      120.012634      423.847512
        30        31        32     1      113.217697      553.449045
        30        31        50     1      108.186966      517.207098
        30        31        51     1      108.186966      517.207098
        31        32        33     1      112.502151      609.076402
        31        32        52     1      108.651169      499.861942
        31        32        53     1      108.651169      499.861942
        32        31        50     1      110.085548      477.706712
        32        31        51     1      110.085548      477.706712
        32        33        54     1      111.132057      525.465512
        32        33        55     1      111.132057      525.465512
        32        33        56     1      111.132057      525.465512
        33        32        52     1      110.000793      517.205789
        33        32        53     1      110.000793      517.205789
        45        25        46     1      111.147987      344.776258
        45        25        47     1      111.147987      344.776258
        46        25        47     1      111.147987      344.776258
        50        31        51     1      106.937561      354.642329
        52        32        53     1      106.631248      361.165081
        54        33        55     1      107.766052      361.915330
        54        33        56     1      107.766052      361.915330
        55        33        56     1      107.766052      361.915330

[ dihedrals ] ; propers for gromacs 4.5 or higher, use funct 9
;       ai        aj        ak        al funct           phase               k        pn
         1         4         3         2     9        0.000000        0.164096         1
         1         4         3         2     9      180.000000       14.161053         2
         1         4         3         2     9        0.000000       -0.838172         3
         1         4         3         2     9      180.000000       -0.233555         4
         1         4         3        15     9        0.000000        0.210444         1
         1         4         3        15     9      180.000000       15.567579         2
         1         4         3        15     9        0.000000        0.101180         3
         1         4         3        15     9      180.000000       -0.446371         4
         1         6         5         2     9        0.000000        0.151864         1
         1         6         5         2     9      180.000000       11.489532         2
         1         6         5         2     9        0.000000       -0.456158         3
         1         6         5         2     9      180.000000       -0.212062         4
         1         6         5        10     9        0.000000       -0.330478         1
         1         6         5        10     9      180.000000       10.070724         2
         1         6         5        10     9        0.000000        0.089420         3
         1         6         5        10     9      180.000000       -0.272537         4
         1         6         7         8     9        0.000000        0.601589         1
         1         6         7         8     9      180.000000       16.401411         2
         1         6         7         8     9        0.000000        0.383469         3
         1         6         7         8     9      180.000000       -0.372567         4
         1        11        12        13     9        0.000000        0.279806         1
         1        11        12        13     9      180.000000       14.116177         2
         1        11        12        13     9        0.000000       -0.110734         3
         1        11        12        13     9      180.000000       -0.148110         4
         1        11        12        38     9        0.000000       -0.010357         1
         1        11        12        38     9      180.000000       12.522140         2
         1        11        12        38     9        0.000000       -0.209991         3
         1        11        12        38     9      180.000000        0.141486         4
         1        11        14        26     9        0.000000        0.104479         1
         1        11        14        26     9      180.000000       16.892004         2
         1        11        14        26     9        0.000000        0.109093         3
         1        11        14        26     9      180.000000       -0.605016         4
         1        11        14        40     9        0.000000       -0.042363         1
         1        11        14        40     9      180.000000       12.715629         2
         1        11        14        40     9        0.000000       -0.098548         3
         1        11        14        40     9      180.000000        0.143003         4
         2         3         4        35     9        0.000000       -0.064754         1
         2         3         4        35     9      180.000000       11.935983         2
         2         3         4        35     9        0.000000       -0.432953         3
         2         3         4        35     9      180.000000        0.110544         4
         2         3        15        16     9        0.000000       -0.167871         1
         2         3        15        16     9      180.000000        3.526327         2
         2         3        15        16     9        0.000000       -0.356690         3
         2         3        15        16     9      180.000000        0.139573         4
         2         3        15        41     9        0.000000       -0.457731         1
         2         3        15        41     9      180.000000        3.512783         2
         2         3        15        41     9        0.000000       -0.099181         3
         2         3        15        41     9      180.000000        0.073473         4
         2         5         6         7     9        0.000000        0.340548         1
         2         5         6         7     9      180.000000       11.179590         2
         2         5         6         7     9        0.000000       -0.065208         3
         2         5         6         7     9      180.000000       -0.244500         4
         2         5        10         9     9        0.000000       -0.023334         1
         2         5        10         9     9      180.000000       18.424194         2
         2         5        10         9     9        0.000000        0.154347         3
         2         5        10         9     9      180.000000       -0.275637         4
         3         2         5         6     9        0.000000       -0.535157         1
         3         2         5         6     9      180.000000       13.643161         2
         3         2         5         6     9        0.000000       -0.954560         3
         3         2         5         6     9      180.000000       -0.185752         4
         3         2         5        10     9        0.000000       -0.306896         1
         3         2         5        10     9      180.000000       14.010283         2
         3         2         5        10     9        0.000000       -0.425194         3
         3         2         5        10     9      180.000000       -0.392180         4
         3         4         1         6     9        0.000000       -0.222467         1
         3         4         1         6     9      180.000000       19.359643         2
         3         4         1         6     9        0.000000       -1.525309         3
         3         4         1         6     9      180.000000       -0.307919         4
         3         4         1        11     9        0.000000        0.336344         1
         3         4         1        11     9      180.000000       19.330281         2
         3         4         1        11     9        0.000000        0.018425         3
         3         4         1        11     9      180.000000       -0.798031         4
         3        15        16        17     9        0.000000        1.786047         1
         3        15        16        17     9      180.000000        3.116500         2
         3        15        16        17     9        0.000000       -0.286577         3
         3        15        16        17     9      180.000000        0.145436         4
         3        15        16        21     9        0.000000       -1.816149         1
         3        15        16        21     9      180.000000        4.619862         2
         3        15        16        21     9        0.000000       -0.590150         3
         3        15        16        21     9      180.000000        0.059912         4
         4         1         6         5     9        0.000000       -0.407537         1
         4         1         6         5     9      180.000000       10.542520         2
         4         1         6         5     9        0.000000       -0.867662         3
         4         1         6         5     9      180.000000        0.040791         4
         4         1         6         7     9        0.000000        0.050013         1
         4         1         6         7     9      180.000000        9.582071         2
         4         1         6         7     9        0.000000       -0.305997         3
         4         1         6         7     9      180.000000       -0.087278         4
         4         1        11        12     9        0.000000       -0.479631         1
         4         1        11        12     9      180.000000        4.596342         2
         4         1        11        12     9        0.000000       -0.037898         3
         4         1        11        12     9      180.000000        0.664984         4
         4         1        11        14     9        0.000000       -0.296317         1
         4         1        11        14     9      180.000000        4.565098         2
         4         1        11        14     9        0.000000        0.181580         3
         4         1        11        14     9      180.000000        0.576831         4
         4         3         2         5     9        0.000000       -0.172695         1
         4         3         2         5     9      180.000000       17.269977         2
         4         3         2         5     9        0.000000       -1.150047         3
         4         3         2         5     9      180.000000       -0.415713         4
         4         3         2        34     9        0.000000        0.057194         1
         4         3         2        34     9      180.000000       13.340744         2
         4         3         2        34     9        0.000000       -0.358398         3
         4         3         2        34     9      180.000000        0.131357         4
         4         3        15        16     9        0.000000       -0.235194         1
         4         3        15        16     9      180.000000        3.390104         2
         4         3        15        16     9        0.000000        0.020231         3
         4         3        15        16     9      180.000000        0.120802         4
         4         3        15        41     9        0.000000       -0.401552         1
         4         3        15        41     9      180.000000        3.316239         2
         4         3        15        41     9        0.000000        0.053715         3
         4         3        15        41     9      180.000000        0.093663         4
         5         2         3        15     9        0.000000        0.246511         1
         5         2         3        15     9      180.000000       19.522853         2
         5         2         3        15     9        0.000000        0.055608         3
         5         2         3        15     9      180.000000       -0.772829         4
         5         6         1        11     9        0.000000        0.119155         1
         5         6         1        11     9      180.000000       12.677563         2
         5         6         1        11     9        0.000000       -0.023199         3
         5         6         1        11     9      180.000000       -0.468567         4
         5         6         7         8     9        0.000000        0.188120         1
         5         6         7         8     9      180.000000       16.793790         2
         5         6         7         8     9        0.000000       -0.050993         3
         5         6         7         8     9      180.000000       -0.239062         4
         5        10         9         8     9        0.000000       -0.161990         1
         5        10         9         8     9      180.000000       25.805864         2
         5        10         9         8     9        0.000000       -0.989158         3
         5        10         9         8     9      180.000000       -0.201960         4
         5        10         9        37     9        0.000000        0.808513         1
         5        10         9        37     9      180.000000       23.535886         2
         5        10         9        37     9        0.000000        0.064004         3
         5        10         9        37     9      180.000000       -0.475717         4
         6         1         4        35     9        0.000000        0.197520         1
         6         1         4        35     9      180.000000       15.644651         2
         6         1         4        35     9        0.000000       -0.327288         3
         6         1         4        35     9      180.000000        0.175225         4
         6         1        11        12     9        0.000000       -0.007630         1
         6         1        11        12     9      180.000000        4.221758         2
         6         1        11        12     9        0.000000       -0.027697         3
         6         1        11        12     9      180.000000        0.767394         4
         6         1        11        14     9        0.000000       -0.385086         1
         6         1        11        14     9      180.000000        4.278510         2
         6         1        11        14     9        0.000000       -0.256051         3
         6         1        11        14     9      180.000000        0.844180         4
         6         5         2        34     9        0.000000       -0.170721         1
         6         5         2        34     9      180.000000       10.545502         2
         6         5         2        34     9        0.000000       -0.262492         3
         6         5         2        34     9      180.000000       -0.003795         4
         6         5        10         9     9        0.000000       -0.107916         1
         6         5        10         9     9      180.000000       16.440884         2
         6         5        10         9     9        0.000000        0.043441         3
         6         5        10         9     9      180.000000       -0.231039         4
         6         7         8         9     9        0.000000        0.103245         1
         6         7         8         9     9      180.000000       25.050131         2
         6         7         8         9     9        0.000000       -0.948796         3
         6         7         8         9     9      180.000000       -0.159021         4
         6         7         8        36     9        0.000000        0.727425         1
         6         7         8        36     9      180.000000       22.903268         2
         6         7         8        36     9        0.000000        0.106514         3
         6         7         8        36     9      180.000000       -0.552430         4
         7         6         1        11     9        0.000000       -0.537272         1
         7         6         1        11     9      180.000000       12.390915         2
         7         6         1        11     9        0.000000       -0.149751         3
         7         6         1        11     9      180.000000       -0.482238         4
         7         6         5        10     9        0.000000        0.159900         1
         7         6         5        10     9      180.000000       11.086216         2
         7         6         5        10     9        0.000000        0.160518         3
         7         6         5        10     9      180.000000       -0.397158         4
         7         8         9        10     9        0.000000       -0.713203         1
         7         8         9        10     9      180.000000       11.742392         2
         7         8         9        10     9        0.000000       -0.552181         3
         7         8         9        10     9      180.000000       -0.521535         4
         7         8         9        37     9        0.000000       -0.026031         1
         7         8         9        37     9      180.000000        9.508286         2
         7         8         9        37     9        0.000000       -0.255749         3
         7         8         9        37     9      180.000000       -0.134502         4
        10         5         2        34     9        0.000000        0.016940         1
        10         5         2        34     9      180.000000       11.980067         2
        10         5         2        34     9        0.000000       -0.349905         3
        10         5         2        34     9      180.000000        0.012863         4
        10         9         8        36     9        0.000000       -0.199022         1
        10         9         8        36     9      180.000000        9.267615         2
        10         9         8        36     9        0.000000       -0.318099         3
        10         9         8        36     9      180.000000       -0.090079         4
        11         1         4        35     9        0.000000        0.009108         1
        11         1         4        35     9      180.000000       14.924329         2
        11         1         4        35     9        0.000000       -0.149141         3
        11         1         4        35     9      180.000000        0.103227         4
        11        12        13        27     9        0.000000       -0.149064         1
        11        12        13        27     9      180.000000       21.254181         2
        11        12        13        27     9        0.000000       -1.658121         3
        11        12        13        27     9      180.000000       -0.538861         4
        11        12        13        39     9        0.000000        0.009880         1
        11        12        13        39     9      180.000000       15.243821         2
        11        12        13        39     9        0.000000       -0.469502         3
        11        12        13        39     9      180.000000        0.094909         4
        11        14        26        27     9        0.000000       -0.031961         1
        11        14        26        27     9      180.000000       17.440918         2
        11        14        26        27     9        0.000000       -1.631791         3
        11        14        26        27     9      180.000000       -0.375366         4
        11        14        26        30     9        0.000000        0.050649         1
        11        14        26        30     9      180.000000       16.382534         2
        11        14        26        30     9        0.000000       -0.488356         3
        11        14        26        30     9      180.000000       -0.454567         4
        12        11        14        26     9        0.000000       -0.187899         1
        12        11        14        26     9      180.000000       20.743028         2
        12        11        14        26     9        0.000000       -1.685105         3
        12        11        14        26     9      180.000000       -0.514520         4
        12        11        14        40     9        0.000000        0.063736         1
        12        11        14        40     9      180.000000       13.931113         2
        12        11        14        40     9        0.000000       -0.471968         3
        12        11        14        40     9      180.000000        0.103907         4
        12        13        27        26     9        0.000000       -0.061137         1
        12        13        27        26     9      180.000000       19.195375         2
        12        13        27        26     9        0.000000       -2.019892         3
        12        13        27        26     9      180.000000       -0.396821         4
        12        13        27        28     9        0.000000        0.115860         1
        12        13        27        28     9      180.000000       13.419553         2
        12        13        27        28     9        0.000000       -0.491323         3
        12        13        27        28     9      180.000000       -0.163170         4
        13        12        11        14     9        0.000000       -0.065890         1
        13        12        11        14     9      180.000000       17.442235         2
        13        12        11        14     9        0.000000       -1.317963         3
        13        12        11        14     9      180.000000       -0.338269         4
        13        27        26        14     9        0.000000       -0.116238         1
        13        27        26        14     9      180.000000       10.838330         2
        13        27        26        14     9        0.000000       -1.510458         3
        13        27        26        14     9      180.000000       -0.092810         4
        13        27        26        30     9        0.000000        0.441311         1
        13        27        26        30     9      180.000000       11.238783         2
        13        27        26        30     9        0.000000       -2.446021         3
        13        27        26        30     9      180.000000       -0.096037         4
        13        27        28        29     9        0.000000        0.291840         1
        13        27        28        29     9      180.000000        4.434478         2
        13        27        28        29     9        0.000000       -0.577319         3
        13        27        28        29     9      180.000000        0.002687         4
        13        27        28        48     9        0.000000       -0.603481         1
        13        27        28        48     9      180.000000        4.378860         2
        13        27        28        48     9        0.000000       -0.144623         3
        13        27        28        48     9      180.000000        0.158581         4
        14        11        12        38     9        0.000000        0.065410         1
        14        11        12        38     9      180.000000       13.313826         2
        14        11        12        38     9        0.000000       -0.602074         3
        14        11        12        38     9      180.000000        0.156791         4
        14        26        27        28     9        0.000000        0.255652         1
        14        26        27        28     9      180.000000        9.958537         2
        14        26        27        28     9        0.000000       -1.515685         3
        14        26        27        28     9      180.000000       -0.016970         4
        14        26        30        29     9        0.000000       -0.062197         1
        14        26        30        29     9      180.000000        2.740506         2
        14        26        30        29     9        0.000000        0.170619         3
        14        26        30        29     9      180.000000        0.173829         4
        14        26        30        31     9        0.000000       -0.942463         1
        14        26        30        31     9      180.000000        2.352047         2
        14        26        30        31     9        0.000000       -0.122051         3
        14        26        30        31     9      180.000000        0.236699         4
        15         3         2        34     9        0.000000       -0.006423         1
        15         3         2        34     9      180.000000       15.238159         2
        15         3         2        34     9        0.000000       -0.072526         3
        15         3         2        34     9      180.000000        0.161232         4
        15         3         4        35     9        0.000000       -0.058685         1
        15         3         4        35     9      180.000000       14.053045         2
        15         3         4        35     9        0.000000       -0.041461         3
        15         3         4        35     9      180.000000        0.138032         4
        15        16        17        18     9        0.000000        0.186749         1
        15        16        17        18     9      180.000000       16.683917         2
        15        16        17        18     9        0.000000        0.179116         3
        15        16        17        18     9      180.000000       -0.684725         4
        15        16        17        42     9        0.000000       -0.299543         1
        15        16        17        42     9      180.000000       14.371221         2
        15        16        17        42     9        0.000000       -0.253273         3
        15        16        17        42     9      180.000000        0.145399         4
        15        16        21        20     9        0.000000        0.142199         1
        15        16        21        20     9      180.000000       15.897986         2
        15        16        21        20     9        0.000000        0.030266         3
        15        16        21        20     9      180.000000       -0.460852         4
        15        16        21        22     9        0.000000       -0.927876         1
        15        16        21        22     9      180.000000       13.516794         2
        15        16        21        22     9        0.000000       -0.073923         3
        15        16        21        22     9      180.000000       -0.622706         4
        16        17        18        19     9        0.000000        0.319722         1
        16        17        18        19     9      180.000000       22.949103         2
        16        17        18        19     9        0.000000       -0.741217         3
        16        17        18        19     9      180.000000        0.175923         4
        16        21        20        19     9        0.000000       -0.049559         1
        16        21        20        19     9      180.000000       18.886873         2
        16        21        20        19     9        0.000000       -2.021566         3
        16        21        20        19     9      180.000000       -0.405198         4
        16        21        20        44     9        0.000000        0.229105         1
        16        21        20        44     9      180.000000       14.976782         2
        16        21        20        44     9        0.000000       -0.507226         3
        16        21        20        44     9      180.000000        0.085320         4
        16        21        22        23     9        0.000000       -1.334284         1
        16        21        22        23     9      180.000000        0.814377         2
        16        21        22        23     9        0.000000        0.785313         3
        16        21        22        23     9      180.000000       -0.187784         4
        16        21        22        24     9        0.000000       -1.334284         1
        16        21        22        24     9      180.000000        0.814377         2
        16        21        22        24     9        0.000000        0.785313         3
        16        21        22        24     9      180.000000       -0.187784         4
        16        21        22        25     9        0.000000        3.729086         1
        16        21        22        25     9      180.000000       -2.195929         2
        16        21        22        25     9        0.000000        0.799429         3
        16        21        22        25     9      180.000000        0.054293         4
        17        16        15        41     9        0.000000       -1.272588         1
        17        16        15        41     9      180.000000        2.989698         2
        17        16        15        41     9        0.000000       -0.423806         3
        17        16        15        41     9      180.000000        0.040258         4
        17        16        21        20     9        0.000000       -0.037262         1
        17        16        21        20     9      180.000000       14.380144         2
        17        16        21        20     9        0.000000       -0.900345         3
        17        16        21        20     9      180.000000       -0.221952         4
        17        16        21        22     9        0.000000        0.366401         1
        17        16        21        22     9      180.000000       11.025740         2
        17        16        21        22     9        0.000000        0.150288         3
        17        16        21        22     9      180.000000       -0.363523         4
        17        18        19        20     9        0.000000        0.177563         1
        17        18        19        20     9      180.000000       22.523862         2
        17        18        19        20     9        0.000000       -0.901752         3
        17        18        19        20     9      180.000000       -0.193725         4
        17        18        19        43     9        0.000000        0.988694         1
        17        18        19        43     9      180.000000       20.417146         2
        17        18        19        43     9        0.000000        0.253449         3
        17        18        19        43     9      180.000000       -0.430136         4
        18        17        16        21     9        0.000000       -0.510166         1
        18        17        16        21     9      180.000000       14.375530         2
        18        17        16        21     9        0.000000       -0.595358         3
        18        17        16        21     9      180.000000       -0.489937         4
        18        19        20        21     9        0.000000       -0.220826         1
        18        19        20        21     9      180.000000       18.549630         2
        18        19        20        21     9        0.000000       -1.222990         3
        18        19        20        21     9      180.000000       -0.581963         4
        18        19        20        44     9        0.000000        0.066372         1
        18        19        20        44     9      180.000000       14.573595         2
        18        19        20        44     9        0.000000       -0.318036         3
        18        19        20        44     9      180.000000       -0.017204         4
        19        18        17        42     9        0.000000        1.115355         1
        19        18        17        42     9      180.000000       20.962222         2
        19        18        17        42     9        0.000000        0.247396         3
        19        18        17        42     9      180.000000       -0.016300         4
        19        20        21        22     9        0.000000        0.192524         1
        19        20        21        22     9      180.000000       13.995355         2
        19        20        21        22     9        0.000000        0.189775         3
        19        20        21        22     9      180.000000       -0.443899         4
        20        21        22        23     9        0.000000       -0.090527         1
        20        21        22        23     9      180.000000        0.655865         2
        20        21        22        23     9        0.000000       -0.321290         3
        20        21        22        23     9      180.000000       -0.045698         4
        20        21        22        24     9        0.000000       -0.090527         1
        20        21        22        24     9      180.000000        0.655865         2
        20        21        22        24     9        0.000000       -0.321290         3
        20        21        22        24     9      180.000000       -0.045698         4
        20        21        22        25     9        0.000000        0.119865         1
        20        21        22        25     9      180.000000       -0.559451         2
        20        21        22        25     9        0.000000       -0.551232         3
        20        21        22        25     9      180.000000        0.255504         4
        21        16        15        41     9        0.000000        2.440458         1
        21        16        15        41     9      180.000000        3.205589         2
        21        16        15        41     9        0.000000       -0.727467         3
        21        16        15        41     9      180.000000        0.027702         4
        21        16        17        42     9        0.000000        0.058995         1
        21        16        17        42     9      180.000000       12.296400         2
        21        16        17        42     9        0.000000       -0.329284         3
        21        16        17        42     9      180.000000        0.069067         4
        21        20        19        43     9        0.000000        0.008007         1
        21        20        19        43     9      180.000000       14.871301         2
        21        20        19        43     9        0.000000       -0.365300         3
        21        20        19        43     9      180.000000       -0.122425         4
        21        22        25        45     9        0.000000        0.134670         1
        21        22        25        45     9      180.000000       -0.180389         2
        21        22        25        45     9        0.000000        0.326690         3
        21        22        25        45     9      180.000000       -0.016353         4
        21        22        25        46     9        0.000000        0.134670         1
        21        22        25        46     9      180.000000       -0.180389         2
        21        22        25        46     9        0.000000        0.326690         3
        21        22        25        46     9      180.000000       -0.016353         4
        21        22        25        47     9        0.000000        0.134670         1
        21        22        25        47     9      180.000000       -0.180389         2
        21        22        25        47     9        0.000000        0.326690         3
        21        22        25        47     9      180.000000       -0.016353         4
        22        21        20        44     9        0.000000       -0.032266         1
        22        21        20        44     9      180.000000       12.082713         2
        22        21        20        44     9        0.000000       -0.269976         3
        22        21        20        44     9      180.000000        0.014566         4
        23        22        25        45     9        0.000000       -0.020339         1
        23        22        25        45     9      180.000000       -0.042567         2
        23        22        25        45     9        0.000000        0.357266         3
        23        22        25        45     9      180.000000        0.004050         4
        23        22        25        46     9        0.000000       -0.020339         1
        23        22        25        46     9      180.000000       -0.042567         2
        23        22        25        46     9        0.000000        0.357266         3
        23        22        25        46     9      180.000000        0.004050         4
        23        22        25        47     9        0.000000       -0.020339         1
        23        22        25        47     9      180.000000       -0.042567         2
        23        22        25        47     9        0.000000        0.357266         3
        23        22        25        47     9      180.000000        0.004050         4
        24        22        25        45     9        0.000000       -0.020339         1
        24        22        25        45     9      180.000000       -0.042567         2
        24        22        25        45     9        0.000000        0.357266         3
        24        22        25        45     9      180.000000        0.004050         4
        24        22        25        46     9        0.000000       -0.020339         1
        24        22        25        46     9      180.000000       -0.042567         2
        24        22        25        46     9        0.000000        0.357266         3
        24        22        25        46     9      180.000000        0.004050         4
        24        22        25        47     9        0.000000       -0.020339         1
        24        22        25        47     9      180.000000       -0.042567         2
        24        22        25        47     9        0.000000        0.357266         3
        24        22        25        47     9      180.000000        0.004050         4
        26        27        13        39     9        0.000000        0.134808         1
        26        27        13        39     9      180.000000       13.458430         2
        26        27        13        39     9        0.000000       -0.360399         3
        26        27        13        39     9      180.000000       -0.079867         4
        26        27        28        29     9        0.000000       -0.042704         1
        26        27        28        29     9      180.000000       28.304273         2
        26        27        28        29     9        0.000000       -8.538826         3
        26        27        28        29     9      180.000000       -0.246194         4
        26        27        28        48     9        0.000000        0.602184         1
        26        27        28        48     9      180.000000       10.162811         2
        26        27        28        48     9        0.000000        0.267780         3
        26        27        28        48     9      180.000000       -0.241704         4
        26        30        29        28     9        0.000000        0.195694         1
        26        30        29        28     9      180.000000       24.236147         2
        26        30        29        28     9        0.000000       -5.815096         3
        26        30        29        28     9      180.000000       -0.510293         4
        26        30        29        49     9        0.000000        1.187061         1
        26        30        29        49     9      180.000000        9.495136         2
        26        30        29        49     9        0.000000        0.529757         3
        26        30        29        49     9      180.000000       -0.185922         4
        26        30        31        32     9        0.000000       -0.374491         1
        26        30        31        32     9      180.000000       -0.352978         2
        26        30        31        32     9        0.000000        0.615209         3
        26        30        31        32     9      180.000000       -0.009510         4
        26        30        31        50     9        0.000000        0.069526         1
        26        30        31        50     9      180.000000        0.091059         2
        26        30        31        50     9        0.000000        0.680756         3
        26        30        31        50     9      180.000000        0.031197         4
        26        30        31        51     9        0.000000        0.069526         1
        26        30        31        51     9      180.000000        0.091059         2
        26        30        31        51     9        0.000000        0.680756         3
        26        30        31        51     9      180.000000        0.031197         4
        27        13        12        38     9        0.000000        0.099323         1
        27        13        12        38     9      180.000000       16.477580         2
        27        13        12        38     9        0.000000       -0.492857         3
        27        13        12        38     9      180.000000       -0.011794         4
        27        26        14        40     9        0.000000        0.203203         1
        27        26        14        40     9      180.000000       12.388366         2
        27        26        14        40     9        0.000000       -0.126977         3
        27        26        14        40     9      180.000000       -0.018954         4
        27        26        30        29     9        0.000000        0.048888         1
        27        26        30        29     9      180.000000       20.986993         2
        27        26        30        29     9        0.000000       -5.444526         3
        27        26        30        29     9      180.000000       -0.033480         4
        27        26        30        31     9        0.000000       -0.080153         1
        27        26        30        31     9      180.000000        2.722260         2
        27        26        30        31     9        0.000000        0.574709         3
        27        26        30        31     9      180.000000        0.182794         4
        27        28        29        30     9        0.000000       -0.251697         1
        27        28        29        30     9      180.000000       32.043378         2
        27        28        29        30     9        0.000000       -6.177087         3
        27        28        29        30     9      180.000000       -0.806754         4
        27        28        29        49     9        0.000000        0.029616         1
        27        28        29        49     9      180.000000       17.241142         2
        27        28        29        49     9        0.000000       -0.272199         3
        27        28        29        49     9      180.000000       -0.473208         4
        28        27        13        39     9        0.000000       -0.074173         1
        28        27        13        39     9      180.000000       10.441988         2
        28        27        13        39     9        0.000000        0.061747         3
        28        27        13        39     9      180.000000        0.074756         4
        28        27        26        30     9        0.000000        0.425572         1
        28        27        26        30     9      180.000000       17.983713         2
        28        27        26        30     9        0.000000       -5.991057         3
        28        27        26        30     9      180.000000       -0.247124         4
        28        29        30        31     9        0.000000        0.655700         1
        28        29        30        31     9      180.000000        4.440953         2
        28        29        30        31     9        0.000000        0.749711         3
        28        29        30        31     9      180.000000        0.082088         4
        29        30        31        32     9        0.000000        0.688662         1
        29        30        31        32     9      180.000000       -0.086773         2
        29        30        31        32     9        0.000000        0.309479         3
        29        30        31        32     9      180.000000        0.017907         4
        29        30        31        50     9        0.000000       -0.186038         1
        29        30        31        50     9      180.000000        0.086288         2
        29        30        31        50     9        0.000000        0.338032         3
        29        30        31        50     9      180.000000        0.074563         4
        29        30        31        51     9        0.000000       -0.186038         1
        29        30        31        51     9      180.000000        0.086288         2
        29        30        31        51     9        0.000000        0.338032         3
        29        30        31        51     9      180.000000        0.074563         4
        30        26        14        40     9        0.000000        0.175045         1
        30        26        14        40     9      180.000000       11.669730         2
        30        26        14        40     9        0.000000       -0.065915         3
        30        26        14        40     9      180.000000        0.065332         4
        30        29        28        48     9        0.000000       -0.110074         1
        30        29        28        48     9      180.000000       16.179511         2
        30        29        28        48     9        0.000000       -0.389970         3
        30        29        28        48     9      180.000000       -0.352197         4
        30        31        32        33     9        0.000000       -0.914904         1
        30        31        32        33     9      180.000000        0.513254         2
        30        31        32        33     9        0.000000        0.652406         3
        30        31        32        33     9      180.000000       -0.040775         4
        30        31        32        52     9        0.000000        0.363284         1
        30        31        32        52     9      180.000000        0.019874         2
        30        31        32        52     9        0.000000        0.586615         3
        30        31        32        52     9      180.000000        0.057989         4
        30        31        32        53     9        0.000000        0.363284         1
        30        31        32        53     9      180.000000        0.019874         2
        30        31        32        53     9        0.000000        0.586615         3
        30        31        32        53     9      180.000000        0.057989         4
        31        30        29        49     9        0.000000       -0.516599         1
        31        30        29        49     9      180.000000        2.352973         2
        31        30        29        49     9        0.000000        0.286669         3
        31        30        29        49     9      180.000000       -0.033013         4
        31        32        33        54     9        0.000000       -0.098979         1
        31        32        33        54     9      180.000000        0.053638         2
        31        32        33        54     9        0.000000        0.506232         3
        31        32        33        54     9      180.000000        0.027416         4
        31        32        33        55     9        0.000000       -0.098979         1
        31        32        33        55     9      180.000000        0.053638         2
        31        32        33        55     9        0.000000        0.506232         3
        31        32        33        55     9      180.000000        0.027416         4
        31        32        33        56     9        0.000000       -0.098979         1
        31        32        33        56     9      180.000000        0.053638         2
        31        32        33        56     9        0.000000        0.506232         3
        31        32        33        56     9      180.000000        0.027416         4
        33        32        31        50     9        0.000000       -0.052521         1
        33        32        31        50     9      180.000000       -0.014188         2
        33        32        31        50     9        0.000000        0.671792         3
        33        32        31        50     9      180.000000        0.058332         4
        33        32        31        51     9        0.000000       -0.052521         1
        33        32        31        51     9      180.000000       -0.014188         2
        33        32        31        51     9        0.000000        0.671792         3
        33        32        31        51     9      180.000000        0.058332         4
        36         8         9        37     9        0.000000       -0.431715         1
        36         8         9        37     9      180.000000        6.869070         2
        36         8         9        37     9        0.000000       -0.569257         3
        36         8         9        37     9      180.000000        0.186659         4
        38        12        13        39     9        0.000000       -0.056311         1
        38        12        13        39     9      180.000000       12.658448         2
        38        12        13        39     9        0.000000       -0.675856         3
        38        12        13        39     9      180.000000        0.271777         4
        43        19        20        44     9        0.000000       -0.049751         1
        43        19        20        44     9      180.000000       11.944933         2
        43        19        20        44     9        0.000000       -0.710210         3
        43        19        20        44     9      180.000000        0.205813         4
        48        28        29        49     9        0.000000       -0.077525         1
        48        28        29        49     9      180.000000       10.365835         2
        48        28        29        49     9        0.000000       -0.427005         3
        48        28        29        49     9      180.000000        0.139447         4
        50        31        32        52     9        0.000000       -0.040163         1
        50        31        32        52     9      180.000000        0.040540         2
        50        31        32        52     9        0.000000        0.663450         3
        50        31        32        52     9      180.000000       -0.068512         4
        50        31        32        53     9        0.000000       -0.040163         1
        50        31        32        53     9      180.000000        0.040540         2
        50        31        32        53     9        0.000000        0.663450         3
        50        31        32        53     9      180.000000       -0.068512         4
        51        31        32        52     9        0.000000       -0.040163         1
        51        31        32        52     9      180.000000        0.040540         2
        51        31        32        52     9        0.000000        0.663450         3
        51        31        32        52     9      180.000000       -0.068512         4
        51        31        32        53     9        0.000000       -0.040163         1
        51        31        32        53     9      180.000000        0.040540         2
        51        31        32        53     9        0.000000        0.663450         3
        51        31        32        53     9      180.000000       -0.068512         4
        52        32        33        54     9        0.000000       -0.016295         1
        52        32        33        54     9      180.000000        0.018027         2
        52        32        33        54     9        0.000000        0.524780         3
        52        32        33        54     9      180.000000       -0.001558         4
        52        32        33        55     9        0.000000       -0.016295         1
        52        32        33        55     9      180.000000        0.018027         2
        52        32        33        55     9        0.000000        0.524780         3
        52        32        33        55     9      180.000000       -0.001558         4
        52        32        33        56     9        0.000000       -0.016295         1
        52        32        33        56     9      180.000000        0.018027         2
        52        32        33        56     9        0.000000        0.524780         3
        52        32        33        56     9      180.000000       -0.001558         4
        53        32        33        54     9        0.000000       -0.016295         1
        53        32        33        54     9      180.000000        0.018027         2
        53        32        33        54     9        0.000000        0.524780         3
        53        32        33        54     9      180.000000       -0.001558         4
        53        32        33        55     9        0.000000       -0.016295         1
        53        32        33        55     9      180.000000        0.018027         2
        53        32        33        55     9        0.000000        0.524780         3
        53        32        33        55     9      180.000000       -0.001558         4
        53        32        33        56     9        0.000000       -0.016295         1
        53        32        33        56     9      180.000000        0.018027         2
        53        32        33        56     9        0.000000        0.524780         3
        53        32        33        56     9      180.000000       -0.001558         4

[ dihedrals ] ; impropers
;       ai        aj        ak        al funct           phase               k        pn
         8         7         9        36     4      180.000000        4.409855         2
         8         9        36         7     4      180.000000        4.409855         2
         8        36         7         9     4      180.000000        4.409855         2
         9         8        10        37     4      180.000000        4.162411         2
         9        10        37         8     4      180.000000        4.162411         2
         9        37         8        10     4      180.000000        4.162411         2
        17        16        18        42     4      180.000000        3.547249         2
        17        18        42        16     4      180.000000        3.547249         2
        17        42        16        18     4      180.000000        3.547249         2
        19        18        20        43     4      180.000000        3.347116         2
        19        20        43        18     4      180.000000        3.347116         2
        19        43        18        20     4      180.000000        3.347116         2

[ pairs ]
;       ai        aj funct
         1         2     1
         1         8     1
         1        10     1
         1        13     1
         1        15     1
         1        26     1
         1        38     1
         1        40     1
         2         7     1
         2         9     1
         2        16     1
         2        35     1
         2        41     1
         3         6     1
         3        10     1
         3        11     1
         3        17     1
         3        21     1
         4         5     1
         4         7     1
         4        12     1
         4        14     1
         4        16     1
         4        34     1
         4        41     1
         5         8     1
         5        11     1
         5        15     1
         5        37     1
         6         9     1
         6        12     1
         6        14     1
         6        34     1
         6        35     1
         6        36     1
         7        10     1
         7        11     1
         7        37     1
        10        34     1
        10        36     1
        11        27     1
        11        30     1
        11        35     1
        11        39     1
        12        26     1
        12        28     1
        12        40     1
        13        14     1
        13        29     1
        13        30     1
        13        48     1
        14        28     1
        14        29     1
        14        31     1
        14        38     1
        15        18     1
        15        20     1
        15        22     1
        15        34     1
        15        35     1
        15        42     1
        16        19     1
        16        23     1
        16        24     1
        16        25     1
        16        44     1
        17        20     1
        17        22     1
        17        41     1
        17        43     1
        18        21     1
        18        44     1
        19        22     1
        19        42     1
        20        23     1
        20        24     1
        20        25     1
        21        41     1
        21        42     1
        21        43     1
        21        45     1
        21        46     1
        21        47     1
        22        44     1
        23        45     1
        23        46     1
        23        47     1
        24        45     1
        24        46     1
        24        47     1
        26        32     1
        26        39     1
        26        48     1
        26        49     1
        26        50     1
        26        51     1
        27        31     1
        27        38     1
        27        40     1
        27        49     1
        28        31     1
        28        39     1
        29        32     1
        29        50     1
        29        51     1
        30        33     1
        30        40     1
        30        48     1
        30        52     1
        30        53     1
        31        49     1
        31        54     1
        31        55     1
        31        56     1
        33        50     1
        33        51     1
        36        37     1
        38        39     1
        43        44     1
        48        49     1
        50        52     1
        50        53     1
        51        52     1
        51        53     1
        52        54     1
        52        55     1
        52        56     1
        53        54     1
        53        55     1
        53        56     1
