; ITP file created by ByteFF-ML, 2026-02-21 07:43:17.748446

[ atomtypes ]
;name           bonded.type        at.num        mass        charge   ptype           sigma         epsilon
 c0bf                                   6      0.0000       0.00000       A     3.31170e-01     4.10736e-01
 c1bf                                   6      0.0000       0.00000       A     3.31696e-01     4.13508e-01
 c2bf                                   6      0.0000       0.00000       A     3.31534e-01     4.11219e-01
 c3bf                                   6      0.0000       0.00000       A     3.31588e-01     4.14304e-01
 c4bf                                   6      0.0000       0.00000       A     3.31387e-01     4.12836e-01
 c5bf                                   6      0.0000       0.00000       A     3.31581e-01     4.11588e-01
 n6bf                                   7      0.0000       0.00000       A     3.38246e-01     3.93082e-01
 c7bf                                   6      0.0000       0.00000       A     3.31514e-01     4.13144e-01
 c8bf                                   6      0.0000       0.00000       A     3.31562e-01     4.13392e-01
 n9bf                                   7      0.0000       0.00000       A     3.38456e-01     3.92772e-01
 c10bf                                  6      0.0000       0.00000       A     3.31448e-01     4.09612e-01
 c11bf                                  6      0.0000       0.00000       A     3.31464e-01     4.12997e-01
 c12bf                                  6      0.0000       0.00000       A     3.31488e-01     4.12271e-01
 c13bf                                  6      0.0000       0.00000       A     3.31329e-01     4.13141e-01
 n14bf                                  7      0.0000       0.00000       A     3.27929e-01     6.45227e-01
 c15bf                                  6      0.0000       0.00000       A     3.31581e-01     4.12886e-01
 c16bf                                  6      0.0000       0.00000       A     3.31706e-01     4.11679e-01
 n17bf                                  7      0.0000       0.00000       A     3.38344e-01     3.92967e-01
 c18bf                                  6      0.0000       0.00000       A     3.31482e-01     4.12140e-01
 c19bf                                  6      0.0000       0.00000       A     3.31194e-01     4.12903e-01
 c20bf                                  6      0.0000       0.00000       A     3.31298e-01     4.15822e-01
 s21bf                                 16      0.0000       0.00000       A     4.05645e-01     2.55727e-01
 o22bf                                  8      0.0000       0.00000       A     3.04857e-01     6.11370e-01
 o23bf                                  8      0.0000       0.00000       A     3.04857e-01     6.11370e-01
 c24bf                                  6      0.0000       0.00000       A     3.39611e-01     4.49156e-01
 c25bf                                  6      0.0000       0.00000       A     3.31613e-01     4.12000e-01
 c26bf                                  6      0.0000       0.00000       A     3.31427e-01     4.12806e-01
 c27bf                                  6      0.0000       0.00000       A     3.31419e-01     4.13550e-01
 c28bf                                  6      0.0000       0.00000       A     3.31451e-01     4.12127e-01
 n29bf                                  7      0.0000       0.00000       A     3.20651e-01     8.54251e-01
 c30bf                                  6      0.0000       0.00000       A     3.39830e-01     4.50430e-01
 c31bf                                  6      0.0000       0.00000       A     3.39881e-01     4.50061e-01
 h32bf                                  1      0.0000       0.00000       A     2.62399e-01     6.76733e-02
 h33bf                                  1      0.0000       0.00000       A     2.62381e-01     6.75967e-02
 h34bf                                  1      0.0000       0.00000       A     2.53506e-01     6.72855e-02
 h35bf                                  1      0.0000       0.00000       A     2.53506e-01     6.72855e-02
 h36bf                                  1      0.0000       0.00000       A     2.62543e-01     6.73621e-02
 h37bf                                  1      0.0000       0.00000       A     2.62405e-01     6.76334e-02
 h38bf                                  1      0.0000       0.00000       A     1.10952e-01     4.04428e-02
 h39bf                                  1      0.0000       0.00000       A     2.53583e-01     6.80915e-02
 h40bf                                  1      0.0000       0.00000       A     2.53644e-01     6.69998e-02
 h41bf                                  1      0.0000       0.00000       A     2.62744e-01     6.79622e-02
 h42bf                                  1      0.0000       0.00000       A     2.42021e-01     8.71597e-02
 h43bf                                  1      0.0000       0.00000       A     2.42021e-01     8.71597e-02
 h44bf                                  1      0.0000       0.00000       A     2.42021e-01     8.71597e-02
 h45bf                                  1      0.0000       0.00000       A     2.62695e-01     6.74898e-02
 h46bf                                  1      0.0000       0.00000       A     2.53862e-01     6.73015e-02
 h47bf                                  1      0.0000       0.00000       A     2.41969e-01     8.74279e-02
 h48bf                                  1      0.0000       0.00000       A     2.41969e-01     8.74279e-02
 h49bf                                  1      0.0000       0.00000       A     2.41969e-01     8.74279e-02
 h50bf                                  1      0.0000       0.00000       A     2.59961e-01     8.70879e-02
 h51bf                                  1      0.0000       0.00000       A     2.59961e-01     8.70879e-02
 h52bf                                  1      0.0000       0.00000       A     2.59961e-01     8.70879e-02

[ moleculetype ]
;name             nrexcl
 56                    3

[ atoms ]
;       nr            type      resi   res      atom      cgnr      charge          mass ; qtot
         1            c0bf         1   UNL        c0         1     0.03111       12.0110 ; qtot    0.031
         2            c1bf         1   UNL        c1         2    -0.14199       12.0110 ; qtot   -0.111
         3            c2bf         1   UNL        c2         3     0.30813       12.0110 ; qtot    0.197
         4            c3bf         1   UNL        c3         4    -0.13154       12.0110 ; qtot    0.066
         5            c4bf         1   UNL        c4         5     0.25847       12.0110 ; qtot    0.324
         6            c5bf         1   UNL        c5         6     0.21951       12.0110 ; qtot    0.544
         7            n6bf         1   UNL        n6         7    -0.62228       14.0070 ; qtot   -0.079
         8            c7bf         1   UNL        c7         8     0.29317       12.0110 ; qtot    0.215
         9            c8bf         1   UNL        c8         9     0.29405       12.0110 ; qtot    0.509
        10            n9bf         1   UNL        n9        10    -0.62285       14.0070 ; qtot   -0.114
        11           c10bf         1   UNL       c10        11    -0.02554       12.0110 ; qtot   -0.140
        12           c11bf         1   UNL       c11        12    -0.11429       12.0110 ; qtot   -0.254
        13           c12bf         1   UNL       c12        13    -0.03846       12.0110 ; qtot   -0.293
        14           c13bf         1   UNL       c13        14    -0.10727       12.0110 ; qtot   -0.400
        15           n14bf         1   UNL       n14        15    -0.96404       14.0070 ; qtot   -1.364
        16           c15bf         1   UNL       c15        16     0.35358       12.0110 ; qtot   -1.010
        17           c16bf         1   UNL       c16        17     0.27846       12.0110 ; qtot   -0.732
        18           n17bf         1   UNL       n17        18    -0.60355       14.0070 ; qtot   -1.335
        19           c18bf         1   UNL       c18        19     0.28639       12.0110 ; qtot   -1.049
        20           c19bf         1   UNL       c19        20    -0.03902       12.0110 ; qtot   -1.088
        21           c20bf         1   UNL       c20        21    -0.27733       12.0110 ; qtot   -1.365
        22           s21bf         1   UNL       s21        22     0.99436       32.0670 ; qtot   -0.371
        23           o22bf         1   UNL       o22        23    -0.51400       15.9990 ; qtot   -0.885
        24           o23bf         1   UNL       o23        24    -0.51400       15.9990 ; qtot   -1.399
        25           c24bf         1   UNL       c24        25    -0.29607       12.0110 ; qtot   -1.695
        26           c25bf         1   UNL       c25        26    -0.04555       12.0110 ; qtot   -1.741
        27           c26bf         1   UNL       c26        27    -0.09315       12.0110 ; qtot   -1.834
        28           c27bf         1   UNL       c27        28    -0.23855       12.0110 ; qtot   -2.072
        29           c28bf         1   UNL       c28        29    -0.14962       12.0110 ; qtot   -2.222
        30           n29bf         1   UNL       n29        30    -0.11109       14.0070 ; qtot   -2.333
        31           c30bf         1   UNL       c30        31     0.06447       12.0110 ; qtot   -2.268
        32           c31bf         1   UNL       c31        32    -0.04633       12.0110 ; qtot   -2.315
        33           h32bf         1   UNL       h32        33     0.14328        1.0080 ; qtot   -2.172
        34           h33bf         1   UNL       h33        34     0.12730        1.0080 ; qtot   -2.044
        35           h34bf         1   UNL       h34        35     0.03158        1.0080 ; qtot   -2.013
        36           h35bf         1   UNL       h35        36     0.03160        1.0080 ; qtot   -1.981
        37           h36bf         1   UNL       h36        37     0.11880        1.0080 ; qtot   -1.862
        38           h37bf         1   UNL       h37        38     0.12596        1.0080 ; qtot   -1.736
        39           h38bf         1   UNL       h38        39     0.51181        1.0080 ; qtot   -1.224
        40           h39bf         1   UNL       h39        40     0.03589        1.0080 ; qtot   -1.189
        41           h40bf         1   UNL       h40        41     0.03700        1.0080 ; qtot   -1.152
        42           h41bf         1   UNL       h41        42     0.15079        1.0080 ; qtot   -1.001
        43           h42bf         1   UNL       h42        43     0.10467        1.0080 ; qtot   -0.896
        44           h43bf         1   UNL       h43        44     0.10467        1.0080 ; qtot   -0.791
        45           h44bf         1   UNL       h44        45     0.10467        1.0080 ; qtot   -0.687
        46           h45bf         1   UNL       h45        46     0.20213        1.0080 ; qtot   -0.485
        47           h46bf         1   UNL       h46        47     0.20669        1.0080 ; qtot   -0.278
        48           h47bf         1   UNL       h47        48     0.04880        1.0080 ; qtot   -0.229
        49           h48bf         1   UNL       h48        49     0.04880        1.0080 ; qtot   -0.180
        50           h49bf         1   UNL       h49        50     0.04880        1.0080 ; qtot   -0.132
        51           h50bf         1   UNL       h50        51     0.04387        1.0080 ; qtot   -0.088
        52           h51bf         1   UNL       h51        52     0.04387        1.0080 ; qtot   -0.044
        53           h52bf         1   UNL       h52        53     0.04384        1.0080 ; qtot   -0.000

[ bonds ]
;       ai        aj funct               r               k
         1         4     1        0.138639   330257.671045
         1         6     1        0.143450   237090.864746
         1        11     1        0.148378   213152.186890
         2         3     1        0.138622   325678.790723
         2         5     1        0.141521   284459.010498
         2        33     1        0.108434   324306.120020
         3         4     1        0.142346   251378.111328
         3        15     1        0.140593   260287.089453
         4        34     1        0.108420   321509.091504
         5         6     1        0.143386   223579.461084
         5        10     1        0.136675   270922.835840
         6         7     1        0.136378   268382.250977
         7         8     1        0.131881   374103.202393
         8         9     1        0.142216   238192.510107
         8        35     1        0.108820   315940.162988
         9        10     1        0.131846   380187.239941
         9        36     1        0.108836   315483.763770
        11        12     1        0.141989   258472.039404
        11        14     1        0.140059   293677.728223
        12        13     1        0.138994   323590.110547
        12        37     1        0.108583   317586.795801
        13        27     1        0.141307   281029.478857
        13        32     1        0.150827   208602.367798
        14        26     1        0.139824   309491.327832
        14        38     1        0.108448   321293.609375
        15        16     1        0.138908   287909.073975
        15        39     1        0.101485   406811.259766
        16        17     1        0.141520   257222.712939
        16        21     1        0.141314   265581.366357
        17        18     1        0.133244   341315.137256
        17        40     1        0.108642   319937.154736
        18        19     1        0.133977   313656.558057
        19        20     1        0.139506   299656.731641
        19        41     1        0.108702   319547.177539
        20        21     1        0.139402   313134.068799
        20        42     1        0.108446   326160.114160
        21        22     1        0.180715   124483.627490
        22        23     1        0.147464   495020.215039
        22        24     1        0.147464   495020.215039
        22        25     1        0.180772   140787.539600
        25        43     1        0.109028   319230.108789
        25        44     1        0.109028   319230.108789
        25        45     1        0.109028   319230.108789
        26        27     1        0.142528   242073.920898
        26        30     1        0.138375   261823.146582
        27        28     1        0.143777   248815.768848
        28        29     1        0.137652   378962.173730
        28        46     1        0.108160   333950.209375
        29        30     1        0.138664   275918.251953
        29        47     1        0.108214   333030.132861
        30        31     1        0.145016   229001.678906
        31        48     1        0.109354   299824.280615
        31        49     1        0.109354   299824.280615
        31        50     1        0.109354   299824.280615
        32        51     1        0.109469   298834.896387
        32        52     1        0.109469   298834.896387
        32        53     1        0.109469   298834.896387

[ angles ]
;       ai        aj        ak funct           theta             cth
         1         4         3     1      122.416664      713.198092
         1         4        34     1      118.685669      415.708836
         1         6         5     1      118.951187      697.111309
         1         6         7     1      120.412514      431.328098
         1        11        12     1      119.885727      480.966237
         1        11        14     1      120.194199      428.698414
         2         3         4     1      119.340256      642.053685
         2         3        15     1      121.254745      492.361087
         2         5         6     1      120.564919      663.113437
         2         5        10     1      118.281189      431.308051
         3         2         5     1      120.257889      537.525444
         3         2        33     1      121.917053      423.581575
         3         4        34     1      118.470383      447.200912
         3        15        16     1      126.297546      421.362209
         3        15        39     1      115.426346      433.799388
         4         1         6     1      118.267799      533.691526
         4         1        11     1      119.182518      473.124238
         4         3        15     1      119.236771      541.059908
         5         2        33     1      117.843239      439.647833
         5         6         7     1      120.208412      782.715594
         5        10         9     1      116.661819      559.934704
         6         1        11     1      122.769371      444.044429
         6         5        10     1      121.322975      705.924740
         6         7         8     1      117.611557      602.010986
         7         8         9     1      122.256546      732.863901
         7         8        35     1      117.339157      362.478902
         8         9        10     1      122.299545      738.442163
         8         9        36     1      120.145851      429.987368
         9         8        35     1      120.142014      430.475797
        10         9        36     1      117.380966      342.428057
        11        12        13     1      122.798729      640.896343
        11        12        37     1      118.270775      424.019696
        11        14        26     1      118.175598      745.549460
        11        14        38     1      120.209290      406.693853
        12        11        14     1      119.733749      616.661945
        12        13        27     1      117.565933      718.148844
        12        13        32     1      121.788536      475.214450
        13        12        37     1      119.040565      387.864895
        13        27        26     1      119.358780      703.493544
        13        27        28     1      134.098602      443.357832
        13        32        51     1      111.201660      481.377385
        13        32        52     1      111.201660      481.377385
        13        32        53     1      111.201660      481.377385
        14        26        27     1      122.540466      651.816458
        14        26        30     1      129.784332      441.151075
        15        16        17     1      122.505417      578.362793
        15        16        21     1      121.389572      543.101089
        16        15        39     1      114.551170      450.222622
        16        17        18     1      124.232620      770.104221
        16        17        40     1      119.153419      415.430290
        16        21        20     1      120.275772      760.585008
        16        21        22     1      121.663406      744.979280
        17        16        21     1      115.672928      673.644813
        17        18        19     1      118.320412      693.264846
        18        17        40     1      116.504784      340.209553
        18        19        20     1      122.754715      730.070077
        18        19        41     1      116.530663      356.374383
        19        20        21     1      118.684891      679.603961
        19        20        42     1      121.212906      424.346476
        20        19        41     1      120.538696      415.343272
        20        21        22     1      117.699501      539.880923
        21        20        42     1      120.270653      343.599700
        21        22        23     1      107.938034      640.902280
        21        22        24     1      107.938034      640.902280
        21        22        25     1      103.486084      654.077513
        22        25        43     1      107.672241      569.998432
        22        25        44     1      107.672241      569.998432
        22        25        45     1      107.672241      569.998432
        23        22        24     1      120.015259      741.792185
        23        22        25     1      107.539917      732.341348
        24        22        25     1      107.539917      732.341348
        26        14        38     1      121.757652      418.463492
        26        27        28     1      106.627548      333.339272
        26        30        29     1      108.447144      400.713062
        26        30        31     1      125.131302      514.911280
        27        13        32     1      120.651932      445.489351
        27        26        30     1      107.829468      167.360000
        27        28        29     1      106.835068      432.029570
        27        28        46     1      127.592850      386.688528
        28        29        30     1      110.066147      205.674905
        28        29        47     1      130.011749      347.742330
        29        28        46     1      125.602760      398.724902
        29        30        31     1      126.411011      429.673293
        30        29        47     1      120.140549      439.306018
        30        31        48     1      110.355225      460.296182
        30        31        49     1      110.355225      460.296182
        30        31        50     1      110.355225      460.296182
        43        25        44     1      111.147987      344.776258
        43        25        45     1      111.147987      344.776258
        44        25        45     1      111.147987      344.776258
        48        31        49     1      108.719864      352.472281
        48        31        50     1      108.719864      352.472281
        49        31        50     1      108.719864      352.472281
        51        32        52     1      107.685104      360.765106
        51        32        53     1      107.685104      360.765106
        52        32        53     1      107.685104      360.765106

[ dihedrals ] ; propers for gromacs 4.5 or higher, use funct 9
;       ai        aj        ak        al funct           phase               k        pn
         1         4         3         2     9        0.000000        0.163079         1
         1         4         3         2     9      180.000000       14.174554         2
         1         4         3         2     9        0.000000       -0.840871         3
         1         4         3         2     9      180.000000       -0.235767         4
         1         4         3        15     9        0.000000        0.212036         1
         1         4         3        15     9      180.000000       15.578607         2
         1         4         3        15     9        0.000000        0.103602         3
         1         4         3        15     9      180.000000       -0.451006         4
         1         6         5         2     9        0.000000        0.150022         1
         1         6         5         2     9      180.000000       11.485556         2
         1         6         5         2     9        0.000000       -0.451501         3
         1         6         5         2     9      180.000000       -0.213021         4
         1         6         5        10     9        0.000000       -0.340007         1
         1         6         5        10     9      180.000000       10.049355         2
         1         6         5        10     9        0.000000        0.088265         3
         1         6         5        10     9      180.000000       -0.273891         4
         1         6         7         8     9        0.000000        0.611815         1
         1         6         7         8     9      180.000000       16.375003         2
         1         6         7         8     9        0.000000        0.384345         3
         1         6         7         8     9      180.000000       -0.370601         4
         1        11        12        13     9        0.000000        0.227147         1
         1        11        12        13     9      180.000000       13.735336         2
         1        11        12        13     9        0.000000       -0.078002         3
         1        11        12        13     9      180.000000       -0.150094         4
         1        11        12        37     9        0.000000       -0.029758         1
         1        11        12        37     9      180.000000       12.351569         2
         1        11        12        37     9        0.000000       -0.206900         3
         1        11        12        37     9      180.000000        0.148434         4
         1        11        14        26     9        0.000000        0.145925         1
         1        11        14        26     9      180.000000       17.038651         2
         1        11        14        26     9        0.000000        0.093894         3
         1        11        14        26     9      180.000000       -0.611854         4
         1        11        14        38     9        0.000000       -0.024217         1
         1        11        14        38     9      180.000000       12.655644         2
         1        11        14        38     9        0.000000       -0.106451         3
         1        11        14        38     9      180.000000        0.143857         4
         2         3         4        34     9        0.000000       -0.064754         1
         2         3         4        34     9      180.000000       11.935983         2
         2         3         4        34     9        0.000000       -0.432953         3
         2         3         4        34     9      180.000000        0.110544         4
         2         3        15        16     9        0.000000       -0.167871         1
         2         3        15        16     9      180.000000        3.526327         2
         2         3        15        16     9        0.000000       -0.356690         3
         2         3        15        16     9      180.000000        0.139573         4
         2         3        15        39     9        0.000000       -0.457731         1
         2         3        15        39     9      180.000000        3.512783         2
         2         3        15        39     9        0.000000       -0.099181         3
         2         3        15        39     9      180.000000        0.073473         4
         2         5         6         7     9        0.000000        0.340548         1
         2         5         6         7     9      180.000000       11.179590         2
         2         5         6         7     9        0.000000       -0.065208         3
         2         5         6         7     9      180.000000       -0.244500         4
         2         5        10         9     9        0.000000       -0.023334         1
         2         5        10         9     9      180.000000       18.424194         2
         2         5        10         9     9        0.000000        0.154347         3
         2         5        10         9     9      180.000000       -0.275637         4
         3         2         5         6     9        0.000000       -0.535157         1
         3         2         5         6     9      180.000000       13.643161         2
         3         2         5         6     9        0.000000       -0.954560         3
         3         2         5         6     9      180.000000       -0.185752         4
         3         2         5        10     9        0.000000       -0.306896         1
         3         2         5        10     9      180.000000       14.010283         2
         3         2         5        10     9        0.000000       -0.425194         3
         3         2         5        10     9      180.000000       -0.392180         4
         3         4         1         6     9        0.000000       -0.221185         1
         3         4         1         6     9      180.000000       19.343925         2
         3         4         1         6     9        0.000000       -1.516514         3
         3         4         1         6     9      180.000000       -0.307601         4
         3         4         1        11     9        0.000000        0.332031         1
         3         4         1        11     9      180.000000       19.410308         2
         3         4         1        11     9        0.000000       -0.012943         3
         3         4         1        11     9      180.000000       -0.816901         4
         3        15        16        17     9        0.000000        1.786047         1
         3        15        16        17     9      180.000000        3.116500         2
         3        15        16        17     9        0.000000       -0.286577         3
         3        15        16        17     9      180.000000        0.145436         4
         3        15        16        21     9        0.000000       -1.816149         1
         3        15        16        21     9      180.000000        4.619862         2
         3        15        16        21     9        0.000000       -0.590150         3
         3        15        16        21     9      180.000000        0.059912         4
         4         1         6         5     9        0.000000       -0.407790         1
         4         1         6         5     9      180.000000       10.541436         2
         4         1         6         5     9        0.000000       -0.857947         3
         4         1         6         5     9      180.000000        0.038644         4
         4         1         6         7     9        0.000000        0.056756         1
         4         1         6         7     9      180.000000        9.567631         2
         4         1         6         7     9        0.000000       -0.298117         3
         4         1         6         7     9      180.000000       -0.087348         4
         4         1        11        12     9        0.000000       -0.458167         1
         4         1        11        12     9      180.000000        4.647648         2
         4         1        11        12     9        0.000000       -0.051210         3
         4         1        11        12     9      180.000000        0.670859         4
         4         1        11        14     9        0.000000       -0.285976         1
         4         1        11        14     9      180.000000        4.554558         2
         4         1        11        14     9        0.000000        0.184862         3
         4         1        11        14     9      180.000000        0.573179         4
         4         3         2         5     9        0.000000       -0.172695         1
         4         3         2         5     9      180.000000       17.269977         2
         4         3         2         5     9        0.000000       -1.150047         3
         4         3         2         5     9      180.000000       -0.415713         4
         4         3         2        33     9        0.000000        0.057194         1
         4         3         2        33     9      180.000000       13.340744         2
         4         3         2        33     9        0.000000       -0.358398         3
         4         3         2        33     9      180.000000        0.131357         4
         4         3        15        16     9        0.000000       -0.235194         1
         4         3        15        16     9      180.000000        3.390104         2
         4         3        15        16     9        0.000000        0.020231         3
         4         3        15        16     9      180.000000        0.120802         4
         4         3        15        39     9        0.000000       -0.401552         1
         4         3        15        39     9      180.000000        3.316239         2
         4         3        15        39     9        0.000000        0.053715         3
         4         3        15        39     9      180.000000        0.093663         4
         5         2         3        15     9        0.000000        0.246511         1
         5         2         3        15     9      180.000000       19.522853         2
         5         2         3        15     9        0.000000        0.055608         3
         5         2         3        15     9      180.000000       -0.772829         4
         5         6         1        11     9        0.000000        0.084101         1
         5         6         1        11     9      180.000000       12.761235         2
         5         6         1        11     9        0.000000       -0.040565         3
         5         6         1        11     9      180.000000       -0.478131         4
         5         6         7         8     9        0.000000        0.188120         1
         5         6         7         8     9      180.000000       16.793790         2
         5         6         7         8     9        0.000000       -0.050993         3
         5         6         7         8     9      180.000000       -0.239062         4
         5        10         9         8     9        0.000000       -0.161990         1
         5        10         9         8     9      180.000000       25.805864         2
         5        10         9         8     9        0.000000       -0.989158         3
         5        10         9         8     9      180.000000       -0.201960         4
         5        10         9        36     9        0.000000        0.808513         1
         5        10         9        36     9      180.000000       23.535886         2
         5        10         9        36     9        0.000000        0.064004         3
         5        10         9        36     9      180.000000       -0.475717         4
         6         1         4        34     9        0.000000        0.196216         1
         6         1         4        34     9      180.000000       15.629455         2
         6         1         4        34     9        0.000000       -0.319402         3
         6         1         4        34     9      180.000000        0.180250         4
         6         1        11        12     9        0.000000       -0.203452         1
         6         1        11        12     9      180.000000        4.315150         2
         6         1        11        12     9        0.000000        0.067582         3
         6         1        11        12     9      180.000000        0.790188         4
         6         1        11        14     9        0.000000       -0.347570         1
         6         1        11        14     9      180.000000        4.249266         2
         6         1        11        14     9        0.000000       -0.193714         3
         6         1        11        14     9      180.000000        0.831915         4
         6         5         2        33     9        0.000000       -0.170721         1
         6         5         2        33     9      180.000000       10.545502         2
         6         5         2        33     9        0.000000       -0.262492         3
         6         5         2        33     9      180.000000       -0.003795         4
         6         5        10         9     9        0.000000       -0.107916         1
         6         5        10         9     9      180.000000       16.440884         2
         6         5        10         9     9        0.000000        0.043441         3
         6         5        10         9     9      180.000000       -0.231039         4
         6         7         8         9     9        0.000000        0.103245         1
         6         7         8         9     9      180.000000       25.050131         2
         6         7         8         9     9        0.000000       -0.948796         3
         6         7         8         9     9      180.000000       -0.159021         4
         6         7         8        35     9        0.000000        0.727425         1
         6         7         8        35     9      180.000000       22.903268         2
         6         7         8        35     9        0.000000        0.106514         3
         6         7         8        35     9      180.000000       -0.552430         4
         7         6         1        11     9        0.000000       -0.529319         1
         7         6         1        11     9      180.000000       12.483163         2
         7         6         1        11     9        0.000000       -0.168931         3
         7         6         1        11     9      180.000000       -0.489389         4
         7         6         5        10     9        0.000000        0.159900         1
         7         6         5        10     9      180.000000       11.086216         2
         7         6         5        10     9        0.000000        0.160518         3
         7         6         5        10     9      180.000000       -0.397158         4
         7         8         9        10     9        0.000000       -0.713203         1
         7         8         9        10     9      180.000000       11.742392         2
         7         8         9        10     9        0.000000       -0.552181         3
         7         8         9        10     9      180.000000       -0.521535         4
         7         8         9        36     9        0.000000       -0.026031         1
         7         8         9        36     9      180.000000        9.508286         2
         7         8         9        36     9        0.000000       -0.255749         3
         7         8         9        36     9      180.000000       -0.134502         4
        10         5         2        33     9        0.000000        0.016940         1
        10         5         2        33     9      180.000000       11.980067         2
        10         5         2        33     9        0.000000       -0.349905         3
        10         5         2        33     9      180.000000        0.012863         4
        10         9         8        35     9        0.000000       -0.199022         1
        10         9         8        35     9      180.000000        9.267615         2
        10         9         8        35     9        0.000000       -0.318099         3
        10         9         8        35     9      180.000000       -0.090079         4
        11         1         4        34     9        0.000000        0.013767         1
        11         1         4        34     9      180.000000       14.990768         2
        11         1         4        34     9        0.000000       -0.160355         3
        11         1         4        34     9      180.000000        0.090713         4
        11        12        13        27     9        0.000000       -0.056214         1
        11        12        13        27     9      180.000000       21.679322         2
        11        12        13        27     9        0.000000       -1.582620         3
        11        12        13        27     9      180.000000       -0.652261         4
        11        12        13        32     9        0.000000        0.170357         1
        11        12        13        32     9      180.000000       17.165770         2
        11        12        13        32     9        0.000000        0.122328         3
        11        12        13        32     9      180.000000       -0.243723         4
        11        14        26        27     9        0.000000       -0.056884         1
        11        14        26        27     9      180.000000       17.633607         2
        11        14        26        27     9        0.000000       -1.764722         3
        11        14        26        27     9      180.000000       -0.406082         4
        11        14        26        30     9        0.000000        0.224508         1
        11        14        26        30     9      180.000000       15.884920         2
        11        14        26        30     9        0.000000       -0.322421         3
        11        14        26        30     9      180.000000       -0.373683         4
        12        11        14        26     9        0.000000       -0.214284         1
        12        11        14        26     9      180.000000       20.976607         2
        12        11        14        26     9        0.000000       -1.748102         3
        12        11        14        26     9      180.000000       -0.511819         4
        12        11        14        38     9        0.000000        0.062892         1
        12        11        14        38     9      180.000000       13.917831         2
        12        11        14        38     9        0.000000       -0.435581         3
        12        11        14        38     9      180.000000        0.099910         4
        12        13        27        26     9        0.000000       -0.097002         1
        12        13        27        26     9      180.000000       18.442422         2
        12        13        27        26     9        0.000000       -1.918008         3
        12        13        27        26     9      180.000000       -0.378310         4
        12        13        27        28     9        0.000000        0.049042         1
        12        13        27        28     9      180.000000       12.477765         2
        12        13        27        28     9        0.000000       -0.291158         3
        12        13        27        28     9      180.000000       -0.133915         4
        12        13        32        51     9        0.000000       -0.013747         1
        12        13        32        51     9      180.000000        0.017215         2
        12        13        32        51     9        0.000000       -0.008916         3
        12        13        32        51     9      180.000000       -0.017611         4
        12        13        32        52     9        0.000000       -0.013747         1
        12        13        32        52     9      180.000000        0.017215         2
        12        13        32        52     9        0.000000       -0.008916         3
        12        13        32        52     9      180.000000       -0.017611         4
        12        13        32        53     9        0.000000       -0.013747         1
        12        13        32        53     9      180.000000        0.017215         2
        12        13        32        53     9        0.000000       -0.008916         3
        12        13        32        53     9      180.000000       -0.017611         4
        13        12        11        14     9        0.000000       -0.083009         1
        13        12        11        14     9      180.000000       16.912110         2
        13        12        11        14     9        0.000000       -1.506588         3
        13        12        11        14     9      180.000000       -0.256494         4
        13        27        26        14     9        0.000000       -0.217830         1
        13        27        26        14     9      180.000000       10.188344         2
        13        27        26        14     9        0.000000       -1.839068         3
        13        27        26        14     9      180.000000       -0.024518         4
        13        27        26        30     9        0.000000        0.452741         1
        13        27        26        30     9      180.000000       11.286806         2
        13        27        26        30     9        0.000000       -2.324736         3
        13        27        26        30     9      180.000000       -0.143860         4
        13        27        28        29     9        0.000000        0.529654         1
        13        27        28        29     9      180.000000        4.321307         2
        13        27        28        29     9        0.000000       -0.271892         3
        13        27        28        29     9      180.000000        0.087013         4
        13        27        28        46     9        0.000000       -0.345047         1
        13        27        28        46     9      180.000000        3.932873         2
        13        27        28        46     9        0.000000       -0.058376         3
        13        27        28        46     9      180.000000        0.068376         4
        14        11        12        37     9        0.000000        0.054273         1
        14        11        12        37     9      180.000000       13.218968         2
        14        11        12        37     9        0.000000       -0.661595         3
        14        11        12        37     9      180.000000        0.173656         4
        14        26        27        28     9        0.000000        0.166249         1
        14        26        27        28     9      180.000000        9.752762         2
        14        26        27        28     9        0.000000       -1.670661         3
        14        26        27        28     9      180.000000        0.063961         4
        14        26        30        29     9        0.000000        0.494007         1
        14        26        30        29     9      180.000000        3.137827         2
        14        26        30        29     9        0.000000        0.211710         3
        14        26        30        29     9      180.000000        0.139763         4
        14        26        30        31     9        0.000000       -0.594449         1
        14        26        30        31     9      180.000000        2.104342         2
        14        26        30        31     9        0.000000       -0.128530         3
        14        26        30        31     9      180.000000        0.244375         4
        15         3         2        33     9        0.000000       -0.006423         1
        15         3         2        33     9      180.000000       15.238159         2
        15         3         2        33     9        0.000000       -0.072526         3
        15         3         2        33     9      180.000000        0.161232         4
        15         3         4        34     9        0.000000       -0.058685         1
        15         3         4        34     9      180.000000       14.053045         2
        15         3         4        34     9        0.000000       -0.041461         3
        15         3         4        34     9      180.000000        0.138032         4
        15        16        17        18     9        0.000000        0.186749         1
        15        16        17        18     9      180.000000       16.683917         2
        15        16        17        18     9        0.000000        0.179116         3
        15        16        17        18     9      180.000000       -0.684725         4
        15        16        17        40     9        0.000000       -0.299543         1
        15        16        17        40     9      180.000000       14.371221         2
        15        16        17        40     9        0.000000       -0.253273         3
        15        16        17        40     9      180.000000        0.145399         4
        15        16        21        20     9        0.000000        0.142199         1
        15        16        21        20     9      180.000000       15.897986         2
        15        16        21        20     9        0.000000        0.030266         3
        15        16        21        20     9      180.000000       -0.460852         4
        15        16        21        22     9        0.000000       -0.927876         1
        15        16        21        22     9      180.000000       13.516794         2
        15        16        21        22     9        0.000000       -0.073923         3
        15        16        21        22     9      180.000000       -0.622706         4
        16        17        18        19     9        0.000000        0.319722         1
        16        17        18        19     9      180.000000       22.949103         2
        16        17        18        19     9        0.000000       -0.741217         3
        16        17        18        19     9      180.000000        0.175923         4
        16        21        20        19     9        0.000000       -0.049559         1
        16        21        20        19     9      180.000000       18.886873         2
        16        21        20        19     9        0.000000       -2.021566         3
        16        21        20        19     9      180.000000       -0.405198         4
        16        21        20        42     9        0.000000        0.229105         1
        16        21        20        42     9      180.000000       14.976782         2
        16        21        20        42     9        0.000000       -0.507226         3
        16        21        20        42     9      180.000000        0.085320         4
        16        21        22        23     9        0.000000       -1.334284         1
        16        21        22        23     9      180.000000        0.814377         2
        16        21        22        23     9        0.000000        0.785313         3
        16        21        22        23     9      180.000000       -0.187784         4
        16        21        22        24     9        0.000000       -1.334284         1
        16        21        22        24     9      180.000000        0.814377         2
        16        21        22        24     9        0.000000        0.785313         3
        16        21        22        24     9      180.000000       -0.187784         4
        16        21        22        25     9        0.000000        3.729086         1
        16        21        22        25     9      180.000000       -2.195929         2
        16        21        22        25     9        0.000000        0.799429         3
        16        21        22        25     9      180.000000        0.054293         4
        17        16        15        39     9        0.000000       -1.272588         1
        17        16        15        39     9      180.000000        2.989698         2
        17        16        15        39     9        0.000000       -0.423806         3
        17        16        15        39     9      180.000000        0.040258         4
        17        16        21        20     9        0.000000       -0.037262         1
        17        16        21        20     9      180.000000       14.380144         2
        17        16        21        20     9        0.000000       -0.900345         3
        17        16        21        20     9      180.000000       -0.221952         4
        17        16        21        22     9        0.000000        0.366401         1
        17        16        21        22     9      180.000000       11.025740         2
        17        16        21        22     9        0.000000        0.150288         3
        17        16        21        22     9      180.000000       -0.363523         4
        17        18        19        20     9        0.000000        0.177563         1
        17        18        19        20     9      180.000000       22.523862         2
        17        18        19        20     9        0.000000       -0.901752         3
        17        18        19        20     9      180.000000       -0.193725         4
        17        18        19        41     9        0.000000        0.988694         1
        17        18        19        41     9      180.000000       20.417146         2
        17        18        19        41     9        0.000000        0.253449         3
        17        18        19        41     9      180.000000       -0.430136         4
        18        17        16        21     9        0.000000       -0.510166         1
        18        17        16        21     9      180.000000       14.375530         2
        18        17        16        21     9        0.000000       -0.595358         3
        18        17        16        21     9      180.000000       -0.489937         4
        18        19        20        21     9        0.000000       -0.220826         1
        18        19        20        21     9      180.000000       18.549630         2
        18        19        20        21     9        0.000000       -1.222990         3
        18        19        20        21     9      180.000000       -0.581963         4
        18        19        20        42     9        0.000000        0.066372         1
        18        19        20        42     9      180.000000       14.573595         2
        18        19        20        42     9        0.000000       -0.318036         3
        18        19        20        42     9      180.000000       -0.017204         4
        19        18        17        40     9        0.000000        1.115355         1
        19        18        17        40     9      180.000000       20.962222         2
        19        18        17        40     9        0.000000        0.247396         3
        19        18        17        40     9      180.000000       -0.016300         4
        19        20        21        22     9        0.000000        0.192524         1
        19        20        21        22     9      180.000000       13.995355         2
        19        20        21        22     9        0.000000        0.189775         3
        19        20        21        22     9      180.000000       -0.443899         4
        20        21        22        23     9        0.000000       -0.090527         1
        20        21        22        23     9      180.000000        0.655865         2
        20        21        22        23     9        0.000000       -0.321290         3
        20        21        22        23     9      180.000000       -0.045698         4
        20        21        22        24     9        0.000000       -0.090527         1
        20        21        22        24     9      180.000000        0.655865         2
        20        21        22        24     9        0.000000       -0.321290         3
        20        21        22        24     9      180.000000       -0.045698         4
        20        21        22        25     9        0.000000        0.119865         1
        20        21        22        25     9      180.000000       -0.559451         2
        20        21        22        25     9        0.000000       -0.551232         3
        20        21        22        25     9      180.000000        0.255504         4
        21        16        15        39     9        0.000000        2.440458         1
        21        16        15        39     9      180.000000        3.205589         2
        21        16        15        39     9        0.000000       -0.727467         3
        21        16        15        39     9      180.000000        0.027702         4
        21        16        17        40     9        0.000000        0.058995         1
        21        16        17        40     9      180.000000       12.296400         2
        21        16        17        40     9        0.000000       -0.329284         3
        21        16        17        40     9      180.000000        0.069067         4
        21        20        19        41     9        0.000000        0.008007         1
        21        20        19        41     9      180.000000       14.871301         2
        21        20        19        41     9        0.000000       -0.365300         3
        21        20        19        41     9      180.000000       -0.122425         4
        21        22        25        43     9        0.000000        0.134670         1
        21        22        25        43     9      180.000000       -0.180389         2
        21        22        25        43     9        0.000000        0.326690         3
        21        22        25        43     9      180.000000       -0.016353         4
        21        22        25        44     9        0.000000        0.134670         1
        21        22        25        44     9      180.000000       -0.180389         2
        21        22        25        44     9        0.000000        0.326690         3
        21        22        25        44     9      180.000000       -0.016353         4
        21        22        25        45     9        0.000000        0.134670         1
        21        22        25        45     9      180.000000       -0.180389         2
        21        22        25        45     9        0.000000        0.326690         3
        21        22        25        45     9      180.000000       -0.016353         4
        22        21        20        42     9        0.000000       -0.032266         1
        22        21        20        42     9      180.000000       12.082713         2
        22        21        20        42     9        0.000000       -0.269976         3
        22        21        20        42     9      180.000000        0.014566         4
        23        22        25        43     9        0.000000       -0.020339         1
        23        22        25        43     9      180.000000       -0.042567         2
        23        22        25        43     9        0.000000        0.357266         3
        23        22        25        43     9      180.000000        0.004050         4
        23        22        25        44     9        0.000000       -0.020339         1
        23        22        25        44     9      180.000000       -0.042567         2
        23        22        25        44     9        0.000000        0.357266         3
        23        22        25        44     9      180.000000        0.004050         4
        23        22        25        45     9        0.000000       -0.020339         1
        23        22        25        45     9      180.000000       -0.042567         2
        23        22        25        45     9        0.000000        0.357266         3
        23        22        25        45     9      180.000000        0.004050         4
        24        22        25        43     9        0.000000       -0.020339         1
        24        22        25        43     9      180.000000       -0.042567         2
        24        22        25        43     9        0.000000        0.357266         3
        24        22        25        43     9      180.000000        0.004050         4
        24        22        25        44     9        0.000000       -0.020339         1
        24        22        25        44     9      180.000000       -0.042567         2
        24        22        25        44     9        0.000000        0.357266         3
        24        22        25        44     9      180.000000        0.004050         4
        24        22        25        45     9        0.000000       -0.020339         1
        24        22        25        45     9      180.000000       -0.042567         2
        24        22        25        45     9        0.000000        0.357266         3
        24        22        25        45     9      180.000000        0.004050         4
        26        27        13        32     9        0.000000        0.164256         1
        26        27        13        32     9      180.000000       14.282746         2
        26        27        13        32     9        0.000000        0.134342         3
        26        27        13        32     9      180.000000       -0.389191         4
        26        27        28        29     9        0.000000       -0.080673         1
        26        27        28        29     9      180.000000       28.134413         2
        26        27        28        29     9        0.000000       -9.041955         3
        26        27        28        29     9      180.000000       -0.179461         4
        26        27        28        46     9        0.000000        0.628223         1
        26        27        28        46     9      180.000000        9.709313         2
        26        27        28        46     9        0.000000        0.228456         3
        26        27        28        46     9      180.000000       -0.313299         4
        26        30        29        28     9        0.000000        0.046855         1
        26        30        29        28     9      180.000000       24.300080         2
        26        30        29        28     9        0.000000       -6.072650         3
        26        30        29        28     9      180.000000       -0.561904         4
        26        30        29        47     9        0.000000        1.164633         1
        26        30        29        47     9      180.000000        9.802570         2
        26        30        29        47     9        0.000000        0.435535         3
        26        30        29        47     9      180.000000       -0.246936         4
        26        30        31        48     9        0.000000       -0.033150         1
        26        30        31        48     9      180.000000        0.035903         2
        26        30        31        48     9        0.000000        0.643791         3
        26        30        31        48     9      180.000000        0.013144         4
        26        30        31        49     9        0.000000       -0.033150         1
        26        30        31        49     9      180.000000        0.035903         2
        26        30        31        49     9        0.000000        0.643791         3
        26        30        31        49     9      180.000000        0.013144         4
        26        30        31        50     9        0.000000       -0.033150         1
        26        30        31        50     9      180.000000        0.035903         2
        26        30        31        50     9        0.000000        0.643791         3
        26        30        31        50     9      180.000000        0.013144         4
        27        13        12        37     9        0.000000        0.065627         1
        27        13        12        37     9      180.000000       16.577890         2
        27        13        12        37     9        0.000000       -0.392903         3
        27        13        12        37     9      180.000000       -0.058932         4
        27        13        32        51     9        0.000000       -0.031466         1
        27        13        32        51     9      180.000000       -0.000223         2
        27        13        32        51     9        0.000000        0.362224         3
        27        13        32        51     9      180.000000        0.030246         4
        27        13        32        52     9        0.000000       -0.031466         1
        27        13        32        52     9      180.000000       -0.000223         2
        27        13        32        52     9        0.000000        0.362224         3
        27        13        32        52     9      180.000000        0.030246         4
        27        13        32        53     9        0.000000       -0.031466         1
        27        13        32        53     9      180.000000       -0.000223         2
        27        13        32        53     9        0.000000        0.362224         3
        27        13        32        53     9      180.000000        0.030246         4
        27        26        14        38     9        0.000000        0.117151         1
        27        26        14        38     9      180.000000       12.467520         2
        27        26        14        38     9        0.000000       -0.150103         3
        27        26        14        38     9      180.000000       -0.040617         4
        27        26        30        29     9        0.000000       -0.160692         1
        27        26        30        29     9      180.000000       21.728920         2
        27        26        30        29     9        0.000000       -5.879405         3
        27        26        30        29     9      180.000000       -0.157447         4
        27        26        30        31     9        0.000000        0.112731         1
        27        26        30        31     9      180.000000        2.528069         2
        27        26        30        31     9        0.000000        0.733347         3
        27        26        30        31     9      180.000000        0.234741         4
        27        28        29        30     9        0.000000       -0.241954         1
        27        28        29        30     9      180.000000       31.897761         2
        27        28        29        30     9        0.000000       -6.336900         3
        27        28        29        30     9      180.000000       -0.774587         4
        27        28        29        47     9        0.000000        0.120862         1
        27        28        29        47     9      180.000000       17.197460         2
        27        28        29        47     9        0.000000       -0.260617         3
        27        28        29        47     9      180.000000       -0.461956         4
        28        27        13        32     9        0.000000        0.233476         1
        28        27        13        32     9      180.000000       12.137420         2
        28        27        13        32     9        0.000000        0.202841         3
        28        27        13        32     9      180.000000       -0.153385         4
        28        27        26        30     9        0.000000        0.287773         1
        28        27        26        30     9      180.000000       17.775235         2
        28        27        26        30     9        0.000000       -5.895439         3
        28        27        26        30     9      180.000000       -0.257072         4
        28        29        30        31     9        0.000000        0.384590         1
        28        29        30        31     9      180.000000        4.218599         2
        28        29        30        31     9        0.000000        0.705816         3
        28        29        30        31     9      180.000000        0.277849         4
        29        30        31        48     9        0.000000       -0.049503         1
        29        30        31        48     9      180.000000        0.003661         2
        29        30        31        48     9        0.000000        0.319290         3
        29        30        31        48     9      180.000000        0.004417         4
        29        30        31        49     9        0.000000       -0.049503         1
        29        30        31        49     9      180.000000        0.003661         2
        29        30        31        49     9        0.000000        0.319290         3
        29        30        31        49     9      180.000000        0.004417         4
        29        30        31        50     9        0.000000       -0.049503         1
        29        30        31        50     9      180.000000        0.003661         2
        29        30        31        50     9        0.000000        0.319290         3
        29        30        31        50     9      180.000000        0.004417         4
        30        26        14        38     9        0.000000        0.208971         1
        30        26        14        38     9      180.000000       11.171561         2
        30        26        14        38     9        0.000000       -0.049059         3
        30        26        14        38     9      180.000000        0.106677         4
        30        29        28        46     9        0.000000       -0.128379         1
        30        29        28        46     9      180.000000       15.753605         2
        30        29        28        46     9        0.000000       -0.288742         3
        30        29        28        46     9      180.000000       -0.322118         4
        31        30        29        47     9        0.000000       -0.470025         1
        31        30        29        47     9      180.000000        1.898722         2
        31        30        29        47     9        0.000000        0.284539         3
        31        30        29        47     9      180.000000       -0.029207         4
        32        13        12        37     9        0.000000       -0.101467         1
        32        13        12        37     9      180.000000       13.668472         2
        32        13        12        37     9        0.000000       -0.357962         3
        32        13        12        37     9      180.000000        0.289968         4
        35         8         9        36     9        0.000000       -0.431715         1
        35         8         9        36     9      180.000000        6.869070         2
        35         8         9        36     9        0.000000       -0.569257         3
        35         8         9        36     9      180.000000        0.186659         4
        41        19        20        42     9        0.000000       -0.049751         1
        41        19        20        42     9      180.000000       11.944933         2
        41        19        20        42     9        0.000000       -0.710210         3
        41        19        20        42     9      180.000000        0.205813         4
        46        28        29        47     9        0.000000        0.021578         1
        46        28        29        47     9      180.000000       10.418979         2
        46        28        29        47     9        0.000000       -0.457864         3
        46        28        29        47     9      180.000000        0.140803         4

[ dihedrals ] ; impropers
;       ai        aj        ak        al funct           phase               k        pn
         8         7         9        35     4      180.000000        4.409855         2
         8         9        35         7     4      180.000000        4.409855         2
         8        35         7         9     4      180.000000        4.409855         2
         9         8        10        36     4      180.000000        4.162411         2
         9        10        36         8     4      180.000000        4.162411         2
         9        36         8        10     4      180.000000        4.162411         2
        17        16        18        40     4      180.000000        3.547249         2
        17        18        40        16     4      180.000000        3.547249         2
        17        40        16        18     4      180.000000        3.547249         2
        19        18        20        41     4      180.000000        3.347116         2
        19        20        41        18     4      180.000000        3.347116         2
        19        41        18        20     4      180.000000        3.347116         2

[ pairs ]
;       ai        aj funct
         1         2     1
         1         8     1
         1        10     1
         1        13     1
         1        15     1
         1        26     1
         1        37     1
         1        38     1
         2         7     1
         2         9     1
         2        16     1
         2        34     1
         2        39     1
         3         6     1
         3        10     1
         3        11     1
         3        17     1
         3        21     1
         4         5     1
         4         7     1
         4        12     1
         4        14     1
         4        16     1
         4        33     1
         4        39     1
         5         8     1
         5        11     1
         5        15     1
         5        36     1
         6         9     1
         6        12     1
         6        14     1
         6        33     1
         6        34     1
         6        35     1
         7        10     1
         7        11     1
         7        36     1
        10        33     1
        10        35     1
        11        27     1
        11        30     1
        11        32     1
        11        34     1
        12        26     1
        12        28     1
        12        38     1
        12        51     1
        12        52     1
        12        53     1
        13        14     1
        13        29     1
        13        30     1
        13        46     1
        14        28     1
        14        29     1
        14        31     1
        14        37     1
        15        18     1
        15        20     1
        15        22     1
        15        33     1
        15        34     1
        15        40     1
        16        19     1
        16        23     1
        16        24     1
        16        25     1
        16        42     1
        17        20     1
        17        22     1
        17        39     1
        17        41     1
        18        21     1
        18        42     1
        19        22     1
        19        40     1
        20        23     1
        20        24     1
        20        25     1
        21        39     1
        21        40     1
        21        41     1
        21        43     1
        21        44     1
        21        45     1
        22        42     1
        23        43     1
        23        44     1
        23        45     1
        24        43     1
        24        44     1
        24        45     1
        26        32     1
        26        46     1
        26        47     1
        26        48     1
        26        49     1
        26        50     1
        27        31     1
        27        37     1
        27        38     1
        27        47     1
        27        51     1
        27        52     1
        27        53     1
        28        31     1
        28        32     1
        29        48     1
        29        49     1
        29        50     1
        30        38     1
        30        46     1
        31        47     1
        32        37     1
        35        36     1
        41        42     1
        46        47     1
