; ITP file created by ByteFF-ML, 2026-02-21 07:44:36.850657

[ atomtypes ]
;name           bonded.type        at.num        mass        charge   ptype           sigma         epsilon
 c0bf                                   6      0.0000       0.00000       A     3.31169e-01     4.10704e-01
 c1bf                                   6      0.0000       0.00000       A     3.31696e-01     4.13508e-01
 c2bf                                   6      0.0000       0.00000       A     3.31534e-01     4.11219e-01
 c3bf                                   6      0.0000       0.00000       A     3.31588e-01     4.14304e-01
 c4bf                                   6      0.0000       0.00000       A     3.31387e-01     4.12836e-01
 c5bf                                   6      0.0000       0.00000       A     3.31581e-01     4.11588e-01
 n6bf                                   7      0.0000       0.00000       A     3.38246e-01     3.93082e-01
 c7bf                                   6      0.0000       0.00000       A     3.31514e-01     4.13144e-01
 c8bf                                   6      0.0000       0.00000       A     3.31562e-01     4.13392e-01
 n9bf                                   7      0.0000       0.00000       A     3.38456e-01     3.92772e-01
 c10bf                                  6      0.0000       0.00000       A     3.31420e-01     4.09858e-01
 c11bf                                  6      0.0000       0.00000       A     3.31417e-01     4.13037e-01
 c12bf                                  6      0.0000       0.00000       A     3.31516e-01     4.13372e-01
 c13bf                                  6      0.0000       0.00000       A     3.31358e-01     4.14715e-01
 n14bf                                  7      0.0000       0.00000       A     3.27929e-01     6.45227e-01
 c15bf                                  6      0.0000       0.00000       A     3.31581e-01     4.12886e-01
 c16bf                                  6      0.0000       0.00000       A     3.31706e-01     4.11679e-01
 n17bf                                  7      0.0000       0.00000       A     3.38344e-01     3.92967e-01
 c18bf                                  6      0.0000       0.00000       A     3.31482e-01     4.12140e-01
 c19bf                                  6      0.0000       0.00000       A     3.31194e-01     4.12903e-01
 c20bf                                  6      0.0000       0.00000       A     3.31298e-01     4.15822e-01
 s21bf                                 16      0.0000       0.00000       A     4.05645e-01     2.55727e-01
 o22bf                                  8      0.0000       0.00000       A     3.04857e-01     6.11370e-01
 o23bf                                  8      0.0000       0.00000       A     3.04857e-01     6.11370e-01
 c24bf                                  6      0.0000       0.00000       A     3.39611e-01     4.49156e-01
 c25bf                                  6      0.0000       0.00000       A     3.31511e-01     4.13706e-01
 c26bf                                  6      0.0000       0.00000       A     3.31425e-01     4.13406e-01
 c27bf                                  6      0.0000       0.00000       A     3.31435e-01     4.13548e-01
 c28bf                                  6      0.0000       0.00000       A     3.31316e-01     4.13945e-01
 n29bf                                  7      0.0000       0.00000       A     3.20582e-01     8.58444e-01
 c30bf                                  6      0.0000       0.00000       A     3.40004e-01     4.50712e-01
 f31bf                                  9      0.0000       0.00000       A     3.03623e-01     3.47557e-01
 f32bf                                  9      0.0000       0.00000       A     3.03623e-01     3.47557e-01
 h33bf                                  1      0.0000       0.00000       A     2.62399e-01     6.76733e-02
 h34bf                                  1      0.0000       0.00000       A     2.62381e-01     6.75967e-02
 h35bf                                  1      0.0000       0.00000       A     2.53506e-01     6.72855e-02
 h36bf                                  1      0.0000       0.00000       A     2.53506e-01     6.72855e-02
 h37bf                                  1      0.0000       0.00000       A     2.62523e-01     6.73238e-02
 h38bf                                  1      0.0000       0.00000       A     2.62498e-01     6.69232e-02
 h39bf                                  1      0.0000       0.00000       A     2.62405e-01     6.76334e-02
 h40bf                                  1      0.0000       0.00000       A     1.10952e-01     4.04428e-02
 h41bf                                  1      0.0000       0.00000       A     2.53583e-01     6.80915e-02
 h42bf                                  1      0.0000       0.00000       A     2.53644e-01     6.69998e-02
 h43bf                                  1      0.0000       0.00000       A     2.62744e-01     6.79622e-02
 h44bf                                  1      0.0000       0.00000       A     2.42021e-01     8.71597e-02
 h45bf                                  1      0.0000       0.00000       A     2.42021e-01     8.71597e-02
 h46bf                                  1      0.0000       0.00000       A     2.42021e-01     8.71597e-02
 h47bf                                  1      0.0000       0.00000       A     2.62695e-01     6.74962e-02
 h48bf                                  1      0.0000       0.00000       A     2.53874e-01     6.67668e-02
 h49bf                                  1      0.0000       0.00000       A     2.03669e-01     8.63154e-02

[ moleculetype ]
;name             nrexcl
 57_flip               3

[ atoms ]
;       nr            type      resi   res      atom      cgnr      charge          mass ; qtot
         1            c0bf         1   UNL        c0         1     0.02972       12.0110 ; qtot    0.030
         2            c1bf         1   UNL        c1         2    -0.14199       12.0110 ; qtot   -0.112
         3            c2bf         1   UNL        c2         3     0.30813       12.0110 ; qtot    0.196
         4            c3bf         1   UNL        c3         4    -0.13115       12.0110 ; qtot    0.065
         5            c4bf         1   UNL        c4         5     0.25847       12.0110 ; qtot    0.323
         6            c5bf         1   UNL        c5         6     0.21965       12.0110 ; qtot    0.543
         7            n6bf         1   UNL        n6         7    -0.62228       14.0070 ; qtot   -0.079
         8            c7bf         1   UNL        c7         8     0.29317       12.0110 ; qtot    0.214
         9            c8bf         1   UNL        c8         9     0.29405       12.0110 ; qtot    0.508
        10            n9bf         1   UNL        n9        10    -0.62285       14.0070 ; qtot   -0.115
        11           c10bf         1   UNL       c10        11    -0.02299       12.0110 ; qtot   -0.138
        12           c11bf         1   UNL       c11        12    -0.11542       12.0110 ; qtot   -0.253
        13           c12bf         1   UNL       c12        13    -0.06624       12.0110 ; qtot   -0.320
        14           c13bf         1   UNL       c13        14    -0.09798       12.0110 ; qtot   -0.418
        15           n14bf         1   UNL       n14        15    -0.96404       14.0070 ; qtot   -1.382
        16           c15bf         1   UNL       c15        16     0.35358       12.0110 ; qtot   -1.028
        17           c16bf         1   UNL       c16        17     0.27846       12.0110 ; qtot   -0.750
        18           n17bf         1   UNL       n17        18    -0.60355       14.0070 ; qtot   -1.353
        19           c18bf         1   UNL       c18        19     0.28639       12.0110 ; qtot   -1.067
        20           c19bf         1   UNL       c19        20    -0.03902       12.0110 ; qtot   -1.106
        21           c20bf         1   UNL       c20        21    -0.27733       12.0110 ; qtot   -1.383
        22           s21bf         1   UNL       s21        22     0.99436       32.0670 ; qtot   -0.389
        23           o22bf         1   UNL       o22        23    -0.51400       15.9990 ; qtot   -0.903
        24           o23bf         1   UNL       o23        24    -0.51400       15.9990 ; qtot   -1.417
        25           c24bf         1   UNL       c24        25    -0.29607       12.0110 ; qtot   -1.713
        26           c25bf         1   UNL       c25        26    -0.02983       12.0110 ; qtot   -1.743
        27           c26bf         1   UNL       c26        27    -0.09733       12.0110 ; qtot   -1.840
        28           c27bf         1   UNL       c27        28    -0.21677       12.0110 ; qtot   -2.057
        29           c28bf         1   UNL       c28        29    -0.13581       12.0110 ; qtot   -2.193
        30           n29bf         1   UNL       n29        30    -0.18502       14.0070 ; qtot   -2.378
        31           c30bf         1   UNL       c30        31     0.31442       12.0110 ; qtot   -2.063
        32           f31bf         1   UNL       f31        32    -0.10864       18.9980 ; qtot   -2.172
        33           f32bf         1   UNL       f32        33    -0.10864       18.9980 ; qtot   -2.281
        34           h33bf         1   UNL       h33        34     0.14328        1.0080 ; qtot   -2.137
        35           h34bf         1   UNL       h34        35     0.12730        1.0080 ; qtot   -2.010
        36           h35bf         1   UNL       h35        36     0.03158        1.0080 ; qtot   -1.978
        37           h36bf         1   UNL       h36        37     0.03160        1.0080 ; qtot   -1.947
        38           h37bf         1   UNL       h37        38     0.12044        1.0080 ; qtot   -1.826
        39           h38bf         1   UNL       h38        39     0.11787        1.0080 ; qtot   -1.708
        40           h39bf         1   UNL       h39        40     0.13338        1.0080 ; qtot   -1.575
        41           h40bf         1   UNL       h40        41     0.51181        1.0080 ; qtot   -1.063
        42           h41bf         1   UNL       h41        42     0.03589        1.0080 ; qtot   -1.027
        43           h42bf         1   UNL       h42        43     0.03700        1.0080 ; qtot   -0.990
        44           h43bf         1   UNL       h43        44     0.15079        1.0080 ; qtot   -0.840
        45           h44bf         1   UNL       h44        45     0.10467        1.0080 ; qtot   -0.735
        46           h45bf         1   UNL       h45        46     0.10467        1.0080 ; qtot   -0.630
        47           h46bf         1   UNL       h46        47     0.10467        1.0080 ; qtot   -0.526
        48           h47bf         1   UNL       h47        48     0.20712        1.0080 ; qtot   -0.318
        49           h48bf         1   UNL       h48        49     0.22055        1.0080 ; qtot   -0.098
        50           h49bf         1   UNL       h49        50     0.09793        1.0080 ; qtot   -0.000

[ bonds ]
;       ai        aj funct               r               k
         1         4     1        0.138628   330545.857324
         1         6     1        0.143443   237124.982324
         1        11     1        0.148398   213063.534814
         2         3     1        0.138622   325678.790723
         2         5     1        0.141521   284459.010498
         2        34     1        0.108434   324306.120020
         3         4     1        0.142346   251378.111328
         3        15     1        0.140593   260287.089453
         4        35     1        0.108420   321509.091504
         5         6     1        0.143386   223579.461084
         5        10     1        0.136675   270922.835840
         6         7     1        0.136378   268382.250977
         7         8     1        0.131881   374103.202393
         8         9     1        0.142216   238192.510107
         8        36     1        0.108820   315940.162988
         9        10     1        0.131846   380187.239941
         9        37     1        0.108836   315483.763770
        11        12     1        0.142023   258564.560352
        11        14     1        0.140160   291787.547998
        12        13     1        0.138890   334507.684473
        12        38     1        0.108507   320582.503027
        13        27     1        0.140679   302832.986230
        13        39     1        0.108659   317447.771777
        14        26     1        0.139694   311325.505176
        14        40     1        0.108356   324253.539111
        15        16     1        0.138908   287909.073975
        15        41     1        0.101485   406811.259766
        16        17     1        0.141520   257222.712939
        16        21     1        0.141314   265581.366357
        17        18     1        0.133244   341315.137256
        17        42     1        0.108642   319937.154736
        18        19     1        0.133977   313656.558057
        19        20     1        0.139506   299656.731641
        19        43     1        0.108702   319547.177539
        20        21     1        0.139402   313134.068799
        20        44     1        0.108446   326160.114160
        21        22     1        0.180715   124483.627490
        22        23     1        0.147464   495020.215039
        22        24     1        0.147464   495020.215039
        22        25     1        0.180772   140787.539600
        25        45     1        0.109028   319230.108789
        25        46     1        0.109028   319230.108789
        25        47     1        0.109028   319230.108789
        26        27     1        0.142253   244348.664453
        26        30     1        0.139940   233632.067578
        27        28     1        0.144031   246303.785547
        28        29     1        0.136772   400851.383643
        28        48     1        0.108162   335088.781396
        29        30     1        0.139958   250912.237842
        29        49     1        0.108066   338956.248926
        30        31     1        0.141370   229585.891357
        31        32     1        0.137076   212986.642578
        31        33     1        0.137076   212986.668115
        31        50     1        0.109053   316788.301465

[ angles ]
;       ai        aj        ak funct           theta             cth
         1         4         3     1      122.413124      713.183664
         1         4        35     1      118.685989      415.785479
         1         6         5     1      118.941978      697.082325
         1         6         7     1      120.418312      431.095455
         1        11        12     1      119.991798      509.193426
         1        11        14     1      120.046097      427.262079
         2         3         4     1      119.340256      642.053685
         2         3        15     1      121.254745      492.361087
         2         5         6     1      120.564919      663.113437
         2         5        10     1      118.281189      431.308051
         3         2         5     1      120.257889      537.525444
         3         2        34     1      121.917053      423.581575
         3         4        35     1      118.470383      447.200848
         3        15        16     1      126.297546      421.362209
         3        15        41     1      115.426346      433.799388
         4         1         6     1      118.274681      534.012463
         4         1        11     1      119.145592      472.282120
         4         3        15     1      119.236771      541.059908
         5         2        34     1      117.843239      439.647833
         5         6         7     1      120.208412      782.715594
         5        10         9     1      116.661819      559.934704
         6         1        11     1      122.735001      444.446511
         6         5        10     1      121.322975      705.924740
         6         7         8     1      117.611557      602.010986
         7         8         9     1      122.256546      732.863901
         7         8        36     1      117.339157      362.478934
         8         9        10     1      122.299545      738.442163
         8         9        37     1      120.145851      429.987368
         9         8        36     1      120.142014      430.475797
        10         9        37     1      117.380966      342.428057
        11        12        13     1      121.801224      641.863880
        11        12        38     1      118.687279      420.254569
        11        14        26     1      118.149559      742.179519
        11        14        40     1      120.158142      402.577845
        12        11        14     1      119.749794      636.286065
        12        13        27     1      119.209656      716.003471
        12        13        39     1      120.280472      430.417668
        13        12        38     1      119.736038      414.498728
        13        27        26     1      118.574219      708.517715
        13        27        28     1      134.475266      478.992474
        14        26        27     1      122.608032      637.979750
        14        26        30     1      130.606628      483.635759
        15        16        17     1      122.505417      578.362793
        15        16        21     1      121.389572      543.101089
        16        15        41     1      114.551170      450.222622
        16        17        18     1      124.232620      770.104221
        16        17        42     1      119.153419      415.430290
        16        21        20     1      120.275772      760.585008
        16        21        22     1      121.663406      744.979280
        17        16        21     1      115.672928      673.644813
        17        18        19     1      118.320412      693.264846
        18        17        42     1      116.504784      340.209521
        18        19        20     1      122.754715      730.070077
        18        19        43     1      116.530663      356.374383
        19        20        21     1      118.684891      679.603961
        19        20        44     1      121.212906      424.346476
        20        19        43     1      120.538696      415.343272
        20        21        22     1      117.699501      539.880923
        21        20        44     1      120.270653      343.599700
        21        22        23     1      107.938034      640.902280
        21        22        24     1      107.938034      640.902280
        21        22        25     1      103.486084      654.077513
        22        25        45     1      107.672241      569.998432
        22        25        46     1      107.672241      569.998432
        22        25        47     1      107.672241      569.998432
        23        22        24     1      120.015259      741.792249
        23        22        25     1      107.539932      732.341412
        24        22        25     1      107.539932      732.341412
        26        14        40     1      121.923752      415.394155
        26        27        28     1      106.942093      366.708007
        26        30        29     1      108.737015      362.722366
        26        30        31     1      125.385376      492.932767
        27        13        39     1      120.539261      436.106985
        27        26        30     1      107.057030      167.360000
        27        28        29     1      107.148254      454.252059
        27        28        48     1      127.061218      393.831449
        28        29        30     1      109.383194      242.954472
        28        29        49     1      130.543289      339.025876
        29        28        48     1      125.600662      396.786221
        29        30        31     1      124.981186      482.037104
        30        29        49     1      119.891373      423.042200
        30        31        32     1      110.773987      632.662285
        30        31        33     1      110.773987      632.662285
        30        31        50     1      111.024246      452.749710
        32        31        33     1      106.484268      688.567359
        32        31        50     1      108.886742      408.590717
        33        31        50     1      108.886742      408.590717
        45        25        46     1      111.147987      344.776258
        45        25        47     1      111.147987      344.776258
        46        25        47     1      111.147987      344.776258

[ dihedrals ] ; propers for gromacs 4.5 or higher, use funct 9
;       ai        aj        ak        al funct           phase               k        pn
         1         4         3         2     9        0.000000        0.164096         1
         1         4         3         2     9      180.000000       14.161053         2
         1         4         3         2     9        0.000000       -0.838172         3
         1         4         3         2     9      180.000000       -0.233555         4
         1         4         3        15     9        0.000000        0.210444         1
         1         4         3        15     9      180.000000       15.567579         2
         1         4         3        15     9        0.000000        0.101180         3
         1         4         3        15     9      180.000000       -0.446371         4
         1         6         5         2     9        0.000000        0.151864         1
         1         6         5         2     9      180.000000       11.489532         2
         1         6         5         2     9        0.000000       -0.456158         3
         1         6         5         2     9      180.000000       -0.212062         4
         1         6         5        10     9        0.000000       -0.330478         1
         1         6         5        10     9      180.000000       10.070724         2
         1         6         5        10     9        0.000000        0.089420         3
         1         6         5        10     9      180.000000       -0.272537         4
         1         6         7         8     9        0.000000        0.601589         1
         1         6         7         8     9      180.000000       16.401411         2
         1         6         7         8     9        0.000000        0.383469         3
         1         6         7         8     9      180.000000       -0.372567         4
         1        11        12        13     9        0.000000        0.279806         1
         1        11        12        13     9      180.000000       14.116177         2
         1        11        12        13     9        0.000000       -0.110734         3
         1        11        12        13     9      180.000000       -0.148110         4
         1        11        12        38     9        0.000000       -0.010357         1
         1        11        12        38     9      180.000000       12.522140         2
         1        11        12        38     9        0.000000       -0.209991         3
         1        11        12        38     9      180.000000        0.141486         4
         1        11        14        26     9        0.000000        0.200231         1
         1        11        14        26     9      180.000000       16.800174         2
         1        11        14        26     9        0.000000        0.204303         3
         1        11        14        26     9      180.000000       -0.592792         4
         1        11        14        40     9        0.000000       -0.032458         1
         1        11        14        40     9      180.000000       12.749928         2
         1        11        14        40     9        0.000000       -0.112393         3
         1        11        14        40     9      180.000000        0.132731         4
         2         3         4        35     9        0.000000       -0.064754         1
         2         3         4        35     9      180.000000       11.935983         2
         2         3         4        35     9        0.000000       -0.432953         3
         2         3         4        35     9      180.000000        0.110544         4
         2         3        15        16     9        0.000000       -0.167871         1
         2         3        15        16     9      180.000000        3.526327         2
         2         3        15        16     9        0.000000       -0.356690         3
         2         3        15        16     9      180.000000        0.139573         4
         2         3        15        41     9        0.000000       -0.457731         1
         2         3        15        41     9      180.000000        3.512782         2
         2         3        15        41     9        0.000000       -0.099182         3
         2         3        15        41     9      180.000000        0.073474         4
         2         5         6         7     9        0.000000        0.340548         1
         2         5         6         7     9      180.000000       11.179590         2
         2         5         6         7     9        0.000000       -0.065208         3
         2         5         6         7     9      180.000000       -0.244500         4
         2         5        10         9     9        0.000000       -0.023334         1
         2         5        10         9     9      180.000000       18.424194         2
         2         5        10         9     9        0.000000        0.154347         3
         2         5        10         9     9      180.000000       -0.275637         4
         3         2         5         6     9        0.000000       -0.535157         1
         3         2         5         6     9      180.000000       13.643161         2
         3         2         5         6     9        0.000000       -0.954560         3
         3         2         5         6     9      180.000000       -0.185752         4
         3         2         5        10     9        0.000000       -0.306896         1
         3         2         5        10     9      180.000000       14.010283         2
         3         2         5        10     9        0.000000       -0.425194         3
         3         2         5        10     9      180.000000       -0.392180         4
         3         4         1         6     9        0.000000       -0.222467         1
         3         4         1         6     9      180.000000       19.359643         2
         3         4         1         6     9        0.000000       -1.525309         3
         3         4         1         6     9      180.000000       -0.307919         4
         3         4         1        11     9        0.000000        0.336344         1
         3         4         1        11     9      180.000000       19.330281         2
         3         4         1        11     9        0.000000        0.018425         3
         3         4         1        11     9      180.000000       -0.798031         4
         3        15        16        17     9        0.000000        1.786047         1
         3        15        16        17     9      180.000000        3.116500         2
         3        15        16        17     9        0.000000       -0.286577         3
         3        15        16        17     9      180.000000        0.145436         4
         3        15        16        21     9        0.000000       -1.816149         1
         3        15        16        21     9      180.000000        4.619862         2
         3        15        16        21     9        0.000000       -0.590150         3
         3        15        16        21     9      180.000000        0.059912         4
         4         1         6         5     9        0.000000       -0.407537         1
         4         1         6         5     9      180.000000       10.542520         2
         4         1         6         5     9        0.000000       -0.867662         3
         4         1         6         5     9      180.000000        0.040791         4
         4         1         6         7     9        0.000000        0.050013         1
         4         1         6         7     9      180.000000        9.582071         2
         4         1         6         7     9        0.000000       -0.305997         3
         4         1         6         7     9      180.000000       -0.087278         4
         4         1        11        12     9        0.000000       -0.479631         1
         4         1        11        12     9      180.000000        4.596342         2
         4         1        11        12     9        0.000000       -0.037898         3
         4         1        11        12     9      180.000000        0.664984         4
         4         1        11        14     9        0.000000       -0.346377         1
         4         1        11        14     9      180.000000        4.527260         2
         4         1        11        14     9        0.000000        0.202009         3
         4         1        11        14     9      180.000000        0.554391         4
         4         3         2         5     9        0.000000       -0.172695         1
         4         3         2         5     9      180.000000       17.269977         2
         4         3         2         5     9        0.000000       -1.150047         3
         4         3         2         5     9      180.000000       -0.415713         4
         4         3         2        34     9        0.000000        0.057194         1
         4         3         2        34     9      180.000000       13.340744         2
         4         3         2        34     9        0.000000       -0.358398         3
         4         3         2        34     9      180.000000        0.131357         4
         4         3        15        16     9        0.000000       -0.235194         1
         4         3        15        16     9      180.000000        3.390104         2
         4         3        15        16     9        0.000000        0.020231         3
         4         3        15        16     9      180.000000        0.120802         4
         4         3        15        41     9        0.000000       -0.401552         1
         4         3        15        41     9      180.000000        3.316238         2
         4         3        15        41     9        0.000000        0.053714         3
         4         3        15        41     9      180.000000        0.093664         4
         5         2         3        15     9        0.000000        0.246511         1
         5         2         3        15     9      180.000000       19.522853         2
         5         2         3        15     9        0.000000        0.055608         3
         5         2         3        15     9      180.000000       -0.772829         4
         5         6         1        11     9        0.000000        0.119155         1
         5         6         1        11     9      180.000000       12.677563         2
         5         6         1        11     9        0.000000       -0.023199         3
         5         6         1        11     9      180.000000       -0.468567         4
         5         6         7         8     9        0.000000        0.188120         1
         5         6         7         8     9      180.000000       16.793790         2
         5         6         7         8     9        0.000000       -0.050993         3
         5         6         7         8     9      180.000000       -0.239062         4
         5        10         9         8     9        0.000000       -0.161990         1
         5        10         9         8     9      180.000000       25.805864         2
         5        10         9         8     9        0.000000       -0.989158         3
         5        10         9         8     9      180.000000       -0.201960         4
         5        10         9        37     9        0.000000        0.808513         1
         5        10         9        37     9      180.000000       23.535886         2
         5        10         9        37     9        0.000000        0.064004         3
         5        10         9        37     9      180.000000       -0.475717         4
         6         1         4        35     9        0.000000        0.197520         1
         6         1         4        35     9      180.000000       15.644651         2
         6         1         4        35     9        0.000000       -0.327288         3
         6         1         4        35     9      180.000000        0.175225         4
         6         1        11        12     9        0.000000       -0.007630         1
         6         1        11        12     9      180.000000        4.221758         2
         6         1        11        12     9        0.000000       -0.027697         3
         6         1        11        12     9      180.000000        0.767394         4
         6         1        11        14     9        0.000000       -0.203374         1
         6         1        11        14     9      180.000000        4.269026         2
         6         1        11        14     9        0.000000       -0.257186         3
         6         1        11        14     9      180.000000        0.832202         4
         6         5         2        34     9        0.000000       -0.170721         1
         6         5         2        34     9      180.000000       10.545502         2
         6         5         2        34     9        0.000000       -0.262492         3
         6         5         2        34     9      180.000000       -0.003795         4
         6         5        10         9     9        0.000000       -0.107916         1
         6         5        10         9     9      180.000000       16.440884         2
         6         5        10         9     9        0.000000        0.043441         3
         6         5        10         9     9      180.000000       -0.231039         4
         6         7         8         9     9        0.000000        0.103245         1
         6         7         8         9     9      180.000000       25.050131         2
         6         7         8         9     9        0.000000       -0.948796         3
         6         7         8         9     9      180.000000       -0.159021         4
         6         7         8        36     9        0.000000        0.727425         1
         6         7         8        36     9      180.000000       22.903268         2
         6         7         8        36     9        0.000000        0.106514         3
         6         7         8        36     9      180.000000       -0.552430         4
         7         6         1        11     9        0.000000       -0.537272         1
         7         6         1        11     9      180.000000       12.390915         2
         7         6         1        11     9        0.000000       -0.149751         3
         7         6         1        11     9      180.000000       -0.482238         4
         7         6         5        10     9        0.000000        0.159900         1
         7         6         5        10     9      180.000000       11.086216         2
         7         6         5        10     9        0.000000        0.160518         3
         7         6         5        10     9      180.000000       -0.397158         4
         7         8         9        10     9        0.000000       -0.713203         1
         7         8         9        10     9      180.000000       11.742392         2
         7         8         9        10     9        0.000000       -0.552181         3
         7         8         9        10     9      180.000000       -0.521535         4
         7         8         9        37     9        0.000000       -0.026031         1
         7         8         9        37     9      180.000000        9.508286         2
         7         8         9        37     9        0.000000       -0.255749         3
         7         8         9        37     9      180.000000       -0.134502         4
        10         5         2        34     9        0.000000        0.016940         1
        10         5         2        34     9      180.000000       11.980067         2
        10         5         2        34     9        0.000000       -0.349905         3
        10         5         2        34     9      180.000000        0.012863         4
        10         9         8        36     9        0.000000       -0.199022         1
        10         9         8        36     9      180.000000        9.267615         2
        10         9         8        36     9        0.000000       -0.318099         3
        10         9         8        36     9      180.000000       -0.090079         4
        11         1         4        35     9        0.000000        0.009108         1
        11         1         4        35     9      180.000000       14.924329         2
        11         1         4        35     9        0.000000       -0.149141         3
        11         1         4        35     9      180.000000        0.103227         4
        11        12        13        27     9        0.000000       -0.144680         1
        11        12        13        27     9      180.000000       21.068995         2
        11        12        13        27     9        0.000000       -1.663155         3
        11        12        13        27     9      180.000000       -0.488732         4
        11        12        13        39     9        0.000000        0.009880         1
        11        12        13        39     9      180.000000       15.243821         2
        11        12        13        39     9        0.000000       -0.469502         3
        11        12        13        39     9      180.000000        0.094908         4
        11        14        26        27     9        0.000000       -0.031457         1
        11        14        26        27     9      180.000000       17.742210         2
        11        14        26        27     9        0.000000       -1.736906         3
        11        14        26        27     9      180.000000       -0.408348         4
        11        14        26        30     9        0.000000        0.193713         1
        11        14        26        30     9      180.000000       16.791803         2
        11        14        26        30     9        0.000000       -0.362864         3
        11        14        26        30     9      180.000000       -0.500600         4
        12        11        14        26     9        0.000000       -0.198000         1
        12        11        14        26     9      180.000000       20.928262         2
        12        11        14        26     9        0.000000       -1.701546         3
        12        11        14        26     9      180.000000       -0.527758         4
        12        11        14        40     9        0.000000        0.072651         1
        12        11        14        40     9      180.000000       13.923170         2
        12        11        14        40     9        0.000000       -0.495636         3
        12        11        14        40     9      180.000000        0.108149         4
        12        13        27        26     9        0.000000       -0.031077         1
        12        13        27        26     9      180.000000       19.098031         2
        12        13        27        26     9        0.000000       -2.057056         3
        12        13        27        26     9      180.000000       -0.316529         4
        12        13        27        28     9        0.000000        0.124859         1
        12        13        27        28     9      180.000000       13.472735         2
        12        13        27        28     9        0.000000       -0.498465         3
        12        13        27        28     9      180.000000       -0.145741         4
        13        12        11        14     9        0.000000       -0.074539         1
        13        12        11        14     9      180.000000       17.293403         2
        13        12        11        14     9        0.000000       -1.254861         3
        13        12        11        14     9      180.000000       -0.330606         4
        13        27        26        14     9        0.000000       -0.042704         1
        13        27        26        14     9      180.000000       10.693443         2
        13        27        26        14     9        0.000000       -1.355988         3
        13        27        26        14     9      180.000000       -0.097001         4
        13        27        26        30     9        0.000000        0.349386         1
        13        27        26        30     9      180.000000       11.101359         2
        13        27        26        30     9        0.000000       -2.305218         3
        13        27        26        30     9      180.000000       -0.004499         4
        13        27        28        29     9        0.000000       -0.023502         1
        13        27        28        29     9      180.000000        4.503668         2
        13        27        28        29     9        0.000000       -0.613326         3
        13        27        28        29     9      180.000000        0.033584         4
        13        27        28        48     9        0.000000       -0.586271         1
        13        27        28        48     9      180.000000        4.506130         2
        13        27        28        48     9        0.000000       -0.132961         3
        13        27        28        48     9      180.000000        0.137372         4
        14        11        12        38     9        0.000000        0.065305         1
        14        11        12        38     9      180.000000       13.348218         2
        14        11        12        38     9        0.000000       -0.587697         3
        14        11        12        38     9      180.000000        0.158987         4
        14        26        27        28     9        0.000000        0.419620         1
        14        26        27        28     9      180.000000        9.639874         2
        14        26        27        28     9        0.000000       -1.426110         3
        14        26        27        28     9      180.000000       -0.005625         4
        14        26        30        29     9        0.000000        0.269080         1
        14        26        30        29     9      180.000000        2.538084         2
        14        26        30        29     9        0.000000        0.308018         3
        14        26        30        29     9      180.000000        0.205075         4
        14        26        30        31     9        0.000000        0.534146         1
        14        26        30        31     9      180.000000        1.352408         2
        14        26        30        31     9        0.000000        0.103023         3
        14        26        30        31     9      180.000000        0.196964         4
        15         3         2        34     9        0.000000       -0.006423         1
        15         3         2        34     9      180.000000       15.238159         2
        15         3         2        34     9        0.000000       -0.072526         3
        15         3         2        34     9      180.000000        0.161232         4
        15         3         4        35     9        0.000000       -0.058685         1
        15         3         4        35     9      180.000000       14.053045         2
        15         3         4        35     9        0.000000       -0.041461         3
        15         3         4        35     9      180.000000        0.138032         4
        15        16        17        18     9        0.000000        0.186749         1
        15        16        17        18     9      180.000000       16.683917         2
        15        16        17        18     9        0.000000        0.179116         3
        15        16        17        18     9      180.000000       -0.684725         4
        15        16        17        42     9        0.000000       -0.299543         1
        15        16        17        42     9      180.000000       14.371219         2
        15        16        17        42     9        0.000000       -0.253273         3
        15        16        17        42     9      180.000000        0.145399         4
        15        16        21        20     9        0.000000        0.142199         1
        15        16        21        20     9      180.000000       15.897986         2
        15        16        21        20     9        0.000000        0.030266         3
        15        16        21        20     9      180.000000       -0.460852         4
        15        16        21        22     9        0.000000       -0.927876         1
        15        16        21        22     9      180.000000       13.516794         2
        15        16        21        22     9        0.000000       -0.073923         3
        15        16        21        22     9      180.000000       -0.622706         4
        16        17        18        19     9        0.000000        0.319722         1
        16        17        18        19     9      180.000000       22.949103         2
        16        17        18        19     9        0.000000       -0.741217         3
        16        17        18        19     9      180.000000        0.175923         4
        16        21        20        19     9        0.000000       -0.049559         1
        16        21        20        19     9      180.000000       18.886873         2
        16        21        20        19     9        0.000000       -2.021566         3
        16        21        20        19     9      180.000000       -0.405198         4
        16        21        20        44     9        0.000000        0.229105         1
        16        21        20        44     9      180.000000       14.976782         2
        16        21        20        44     9        0.000000       -0.507226         3
        16        21        20        44     9      180.000000        0.085320         4
        16        21        22        23     9        0.000000       -1.334284         1
        16        21        22        23     9      180.000000        0.814377         2
        16        21        22        23     9        0.000000        0.785313         3
        16        21        22        23     9      180.000000       -0.187784         4
        16        21        22        24     9        0.000000       -1.334284         1
        16        21        22        24     9      180.000000        0.814377         2
        16        21        22        24     9        0.000000        0.785313         3
        16        21        22        24     9      180.000000       -0.187784         4
        16        21        22        25     9        0.000000        3.729086         1
        16        21        22        25     9      180.000000       -2.195929         2
        16        21        22        25     9        0.000000        0.799429         3
        16        21        22        25     9      180.000000        0.054293         4
        17        16        15        41     9        0.000000       -1.272590         1
        17        16        15        41     9      180.000000        2.989698         2
        17        16        15        41     9        0.000000       -0.423807         3
        17        16        15        41     9      180.000000        0.040258         4
        17        16        21        20     9        0.000000       -0.037262         1
        17        16        21        20     9      180.000000       14.380144         2
        17        16        21        20     9        0.000000       -0.900345         3
        17        16        21        20     9      180.000000       -0.221952         4
        17        16        21        22     9        0.000000        0.366401         1
        17        16        21        22     9      180.000000       11.025740         2
        17        16        21        22     9        0.000000        0.150288         3
        17        16        21        22     9      180.000000       -0.363523         4
        17        18        19        20     9        0.000000        0.177563         1
        17        18        19        20     9      180.000000       22.523862         2
        17        18        19        20     9        0.000000       -0.901752         3
        17        18        19        20     9      180.000000       -0.193725         4
        17        18        19        43     9        0.000000        0.988694         1
        17        18        19        43     9      180.000000       20.417146         2
        17        18        19        43     9        0.000000        0.253449         3
        17        18        19        43     9      180.000000       -0.430136         4
        18        17        16        21     9        0.000000       -0.510166         1
        18        17        16        21     9      180.000000       14.375530         2
        18        17        16        21     9        0.000000       -0.595358         3
        18        17        16        21     9      180.000000       -0.489937         4
        18        19        20        21     9        0.000000       -0.220826         1
        18        19        20        21     9      180.000000       18.549630         2
        18        19        20        21     9        0.000000       -1.222990         3
        18        19        20        21     9      180.000000       -0.581963         4
        18        19        20        44     9        0.000000        0.066372         1
        18        19        20        44     9      180.000000       14.573595         2
        18        19        20        44     9        0.000000       -0.318036         3
        18        19        20        44     9      180.000000       -0.017204         4
        19        18        17        42     9        0.000000        1.115355         1
        19        18        17        42     9      180.000000       20.962220         2
        19        18        17        42     9        0.000000        0.247396         3
        19        18        17        42     9      180.000000       -0.016300         4
        19        20        21        22     9        0.000000        0.192524         1
        19        20        21        22     9      180.000000       13.995355         2
        19        20        21        22     9        0.000000        0.189775         3
        19        20        21        22     9      180.000000       -0.443899         4
        20        21        22        23     9        0.000000       -0.090527         1
        20        21        22        23     9      180.000000        0.655865         2
        20        21        22        23     9        0.000000       -0.321290         3
        20        21        22        23     9      180.000000       -0.045698         4
        20        21        22        24     9        0.000000       -0.090527         1
        20        21        22        24     9      180.000000        0.655865         2
        20        21        22        24     9        0.000000       -0.321290         3
        20        21        22        24     9      180.000000       -0.045698         4
        20        21        22        25     9        0.000000        0.119865         1
        20        21        22        25     9      180.000000       -0.559451         2
        20        21        22        25     9        0.000000       -0.551232         3
        20        21        22        25     9      180.000000        0.255504         4
        21        16        15        41     9        0.000000        2.440458         1
        21        16        15        41     9      180.000000        3.205589         2
        21        16        15        41     9        0.000000       -0.727467         3
        21        16        15        41     9      180.000000        0.027702         4
        21        16        17        42     9        0.000000        0.058995         1
        21        16        17        42     9      180.000000       12.296400         2
        21        16        17        42     9        0.000000       -0.329284         3
        21        16        17        42     9      180.000000        0.069067         4
        21        20        19        43     9        0.000000        0.008007         1
        21        20        19        43     9      180.000000       14.871301         2
        21        20        19        43     9        0.000000       -0.365300         3
        21        20        19        43     9      180.000000       -0.122425         4
        21        22        25        45     9        0.000000        0.134670         1
        21        22        25        45     9      180.000000       -0.180389         2
        21        22        25        45     9        0.000000        0.326690         3
        21        22        25        45     9      180.000000       -0.016353         4
        21        22        25        46     9        0.000000        0.134670         1
        21        22        25        46     9      180.000000       -0.180389         2
        21        22        25        46     9        0.000000        0.326690         3
        21        22        25        46     9      180.000000       -0.016353         4
        21        22        25        47     9        0.000000        0.134670         1
        21        22        25        47     9      180.000000       -0.180389         2
        21        22        25        47     9        0.000000        0.326690         3
        21        22        25        47     9      180.000000       -0.016353         4
        22        21        20        44     9        0.000000       -0.032266         1
        22        21        20        44     9      180.000000       12.082713         2
        22        21        20        44     9        0.000000       -0.269976         3
        22        21        20        44     9      180.000000        0.014566         4
        23        22        25        45     9        0.000000       -0.020339         1
        23        22        25        45     9      180.000000       -0.042567         2
        23        22        25        45     9        0.000000        0.357266         3
        23        22        25        45     9      180.000000        0.004050         4
        23        22        25        46     9        0.000000       -0.020339         1
        23        22        25        46     9      180.000000       -0.042567         2
        23        22        25        46     9        0.000000        0.357266         3
        23        22        25        46     9      180.000000        0.004050         4
        23        22        25        47     9        0.000000       -0.020339         1
        23        22        25        47     9      180.000000       -0.042567         2
        23        22        25        47     9        0.000000        0.357266         3
        23        22        25        47     9      180.000000        0.004050         4
        24        22        25        45     9        0.000000       -0.020339         1
        24        22        25        45     9      180.000000       -0.042567         2
        24        22        25        45     9        0.000000        0.357266         3
        24        22        25        45     9      180.000000        0.004050         4
        24        22        25        46     9        0.000000       -0.020339         1
        24        22        25        46     9      180.000000       -0.042567         2
        24        22        25        46     9        0.000000        0.357266         3
        24        22        25        46     9      180.000000        0.004050         4
        24        22        25        47     9        0.000000       -0.020339         1
        24        22        25        47     9      180.000000       -0.042567         2
        24        22        25        47     9        0.000000        0.357266         3
        24        22        25        47     9      180.000000        0.004050         4
        26        27        13        39     9        0.000000        0.198798         1
        26        27        13        39     9      180.000000       13.411505         2
        26        27        13        39     9        0.000000       -0.366168         3
        26        27        13        39     9      180.000000       -0.078406         4
        26        27        28        29     9        0.000000       -0.146486         1
        26        27        28        29     9      180.000000       27.701168         2
        26        27        28        29     9        0.000000       -8.589721         3
        26        27        28        29     9      180.000000       -0.292458         4
        26        27        28        48     9        0.000000        0.721099         1
        26        27        28        48     9      180.000000        9.840368         2
        26        27        28        48     9        0.000000        0.258803         3
        26        27        28        48     9      180.000000       -0.244648         4
        26        30        29        28     9        0.000000        0.053936         1
        26        30        29        28     9      180.000000       21.137931         2
        26        30        29        28     9        0.000000       -6.059550         3
        26        30        29        28     9      180.000000       -0.504320         4
        26        30        29        49     9        0.000000        1.454994         1
        26        30        29        49     9      180.000000        7.562858         2
        26        30        29        49     9        0.000000        0.588224         3
        26        30        29        49     9      180.000000       -0.143513         4
        26        30        31        32     9        0.000000       -1.350305         1
        26        30        31        32     9      180.000000       -0.368869         2
        26        30        31        32     9        0.000000        0.785004         3
        26        30        31        32     9      180.000000       -0.024836         4
        26        30        31        33     9        0.000000       -1.350305         1
        26        30        31        33     9      180.000000       -0.368869         2
        26        30        31        33     9        0.000000        0.785004         3
        26        30        31        33     9      180.000000       -0.024836         4
        26        30        31        50     9        0.000000        1.290461         1
        26        30        31        50     9      180.000000        0.720530         2
        26        30        31        50     9        0.000000        0.829246         3
        26        30        31        50     9      180.000000       -0.210774         4
        27        13        12        38     9        0.000000        0.083694         1
        27        13        12        38     9      180.000000       16.357540         2
        27        13        12        38     9        0.000000       -0.517508         3
        27        13        12        38     9      180.000000       -0.011492         4
        27        26        14        40     9        0.000000        0.142118         1
        27        26        14        40     9      180.000000       12.509403         2
        27        26        14        40     9        0.000000       -0.209010         3
        27        26        14        40     9      180.000000        0.033714         4
        27        26        30        29     9        0.000000       -0.246228         1
        27        26        30        29     9      180.000000       17.001033         2
        27        26        30        29     9        0.000000       -5.427694         3
        27        26        30        29     9      180.000000       -0.003497         4
        27        26        30        31     9        0.000000        0.915513         1
        27        26        30        31     9      180.000000        1.872167         2
        27        26        30        31     9        0.000000        0.465448         3
        27        26        30        31     9      180.000000        0.306431         4
        27        28        29        30     9        0.000000       -0.286873         1
        27        28        29        30     9      180.000000       34.221841         2
        27        28        29        30     9        0.000000       -6.279006         3
        27        28        29        30     9      180.000000       -0.957078         4
        27        28        29        49     9        0.000000        0.001989         1
        27        28        29        49     9      180.000000       17.561954         2
        27        28        29        49     9        0.000000       -0.340144         3
        27        28        29        49     9      180.000000       -0.576304         4
        28        27        13        39     9        0.000000       -0.075418         1
        28        27        13        39     9      180.000000       10.458859         2
        28        27        13        39     9        0.000000        0.040836         3
        28        27        13        39     9      180.000000        0.077039         4
        28        27        26        30     9        0.000000        0.529649         1
        28        27        26        30     9      180.000000       18.549496         2
        28        27        26        30     9        0.000000       -5.765376         3
        28        27        26        30     9      180.000000       -0.217700         4
        28        29        30        31     9        0.000000        1.706277         1
        28        29        30        31     9      180.000000        2.981154         2
        28        29        30        31     9        0.000000        0.928715         3
        28        29        30        31     9      180.000000        0.217702         4
        29        30        31        32     9        0.000000       -0.586279         1
        29        30        31        32     9      180.000000       -0.493198         2
        29        30        31        32     9        0.000000        0.533264         3
        29        30        31        32     9      180.000000        0.000742         4
        29        30        31        33     9        0.000000       -0.586279         1
        29        30        31        33     9      180.000000       -0.493198         2
        29        30        31        33     9        0.000000        0.533264         3
        29        30        31        33     9      180.000000        0.000742         4
        29        30        31        50     9        0.000000       -0.198742         1
        29        30        31        50     9      180.000000        0.936007         2
        29        30        31        50     9        0.000000        0.539442         3
        29        30        31        50     9      180.000000       -0.206839         4
        30        26        14        40     9        0.000000        0.203661         1
        30        26        14        40     9      180.000000       11.575845         2
        30        26        14        40     9        0.000000        0.050177         3
        30        26        14        40     9      180.000000        0.181121         4
        30        29        28        48     9        0.000000        0.310019         1
        30        29        28        48     9      180.000000       17.733013         2
        30        29        28        48     9        0.000000       -0.240598         3
        30        29        28        48     9      180.000000       -0.450385         4
        31        30        29        49     9        0.000000        0.664293         1
        31        30        29        49     9      180.000000        0.721804         2
        31        30        29        49     9        0.000000        0.290605         3
        31        30        29        49     9      180.000000       -0.033248         4
        36         8         9        37     9        0.000000       -0.431715         1
        36         8         9        37     9      180.000000        6.869070         2
        36         8         9        37     9        0.000000       -0.569257         3
        36         8         9        37     9      180.000000        0.186659         4
        38        12        13        39     9        0.000000       -0.056311         1
        38        12        13        39     9      180.000000       12.658448         2
        38        12        13        39     9        0.000000       -0.675856         3
        38        12        13        39     9      180.000000        0.271777         4
        43        19        20        44     9        0.000000       -0.049751         1
        43        19        20        44     9      180.000000       11.944933         2
        43        19        20        44     9        0.000000       -0.710210         3
        43        19        20        44     9      180.000000        0.205813         4
        48        28        29        49     9        0.000000       -0.020413         1
        48        28        29        49     9      180.000000       10.968506         2
        48        28        29        49     9        0.000000       -0.463412         3
        48        28        29        49     9      180.000000        0.174989         4

[ dihedrals ] ; impropers
;       ai        aj        ak        al funct           phase               k        pn
         8         7         9        36     4      180.000000        4.409855         2
         8         9        36         7     4      180.000000        4.409855         2
         8        36         7         9     4      180.000000        4.409855         2
         9         8        10        37     4      180.000000        4.162411         2
         9        10        37         8     4      180.000000        4.162411         2
         9        37         8        10     4      180.000000        4.162411         2
        17        16        18        42     4      180.000000        3.547249         2
        17        18        42        16     4      180.000000        3.547249         2
        17        42        16        18     4      180.000000        3.547249         2
        19        18        20        43     4      180.000000        3.347116         2
        19        20        43        18     4      180.000000        3.347116         2
        19        43        18        20     4      180.000000        3.347116         2

[ pairs ]
;       ai        aj funct
         1         2     1
         1         8     1
         1        10     1
         1        13     1
         1        15     1
         1        26     1
         1        38     1
         1        40     1
         2         7     1
         2         9     1
         2        16     1
         2        35     1
         2        41     1
         3         6     1
         3        10     1
         3        11     1
         3        17     1
         3        21     1
         4         5     1
         4         7     1
         4        12     1
         4        14     1
         4        16     1
         4        34     1
         4        41     1
         5         8     1
         5        11     1
         5        15     1
         5        37     1
         6         9     1
         6        12     1
         6        14     1
         6        34     1
         6        35     1
         6        36     1
         7        10     1
         7        11     1
         7        37     1
        10        34     1
        10        36     1
        11        27     1
        11        30     1
        11        35     1
        11        39     1
        12        26     1
        12        28     1
        12        40     1
        13        14     1
        13        29     1
        13        30     1
        13        48     1
        14        28     1
        14        29     1
        14        31     1
        14        38     1
        15        18     1
        15        20     1
        15        22     1
        15        34     1
        15        35     1
        15        42     1
        16        19     1
        16        23     1
        16        24     1
        16        25     1
        16        44     1
        17        20     1
        17        22     1
        17        41     1
        17        43     1
        18        21     1
        18        44     1
        19        22     1
        19        42     1
        20        23     1
        20        24     1
        20        25     1
        21        41     1
        21        42     1
        21        43     1
        21        45     1
        21        46     1
        21        47     1
        22        44     1
        23        45     1
        23        46     1
        23        47     1
        24        45     1
        24        46     1
        24        47     1
        26        32     1
        26        33     1
        26        39     1
        26        48     1
        26        49     1
        26        50     1
        27        31     1
        27        38     1
        27        40     1
        27        49     1
        28        31     1
        28        39     1
        29        32     1
        29        33     1
        29        50     1
        30        40     1
        30        48     1
        31        49     1
        36        37     1
        38        39     1
        43        44     1
        48        49     1
