; ITP file created by ByteFF-ML, 2026-02-21 07:45:14.946831

[ atomtypes ]
;name           bonded.type        at.num        mass        charge   ptype           sigma         epsilon
 n0bf                                   7      0.0000       0.00000       A     3.38456e-01     3.92772e-01
 n1bf                                   7      0.0000       0.00000       A     3.38246e-01     3.93082e-01
 c2bf                                   6      0.0000       0.00000       A     3.31514e-01     4.13144e-01
 c3bf                                   6      0.0000       0.00000       A     3.31562e-01     4.13392e-01
 c4bf                                   6      0.0000       0.00000       A     3.31581e-01     4.11588e-01
 c5bf                                   6      0.0000       0.00000       A     3.31387e-01     4.12836e-01
 c6bf                                   6      0.0000       0.00000       A     3.31696e-01     4.13506e-01
 c7bf                                   6      0.0000       0.00000       A     3.31534e-01     4.11219e-01
 c8bf                                   6      0.0000       0.00000       A     3.31588e-01     4.14303e-01
 c9bf                                   6      0.0000       0.00000       A     3.31172e-01     4.10827e-01
 c10bf                                  6      0.0000       0.00000       A     3.31467e-01     4.09936e-01
 n11bf                                  7      0.0000       0.00000       A     3.27929e-01     6.45227e-01
 c12bf                                  6      0.0000       0.00000       A     3.31482e-01     4.13376e-01
 c13bf                                  6      0.0000       0.00000       A     3.31383e-01     4.12611e-01
 c14bf                                  6      0.0000       0.00000       A     3.31585e-01     4.12351e-01
 c15bf                                  6      0.0000       0.00000       A     3.31469e-01     4.12664e-01
 c16bf                                  6      0.0000       0.00000       A     3.31488e-01     4.12661e-01
 o17bf                                  8      0.0000       0.00000       A     3.15602e-01     3.04581e-01
 c18bf                                  6      0.0000       0.00000       A     3.39905e-01     4.51916e-01
 c19bf                                  6      0.0000       0.00000       A     3.39875e-01     4.50987e-01
 c20bf                                  6      0.0000       0.00000       A     3.31581e-01     4.12886e-01
 c21bf                                  6      0.0000       0.00000       A     3.31706e-01     4.11679e-01
 n22bf                                  7      0.0000       0.00000       A     3.38344e-01     3.92967e-01
 c23bf                                  6      0.0000       0.00000       A     3.31482e-01     4.12140e-01
 c24bf                                  6      0.0000       0.00000       A     3.31194e-01     4.12903e-01
 c25bf                                  6      0.0000       0.00000       A     3.31298e-01     4.15822e-01
 s26bf                                 16      0.0000       0.00000       A     4.05645e-01     2.55729e-01
 o27bf                                  8      0.0000       0.00000       A     3.04857e-01     6.11370e-01
 o28bf                                  8      0.0000       0.00000       A     3.04857e-01     6.11370e-01
 c29bf                                  6      0.0000       0.00000       A     3.39611e-01     4.49156e-01
 h30bf                                  1      0.0000       0.00000       A     2.53506e-01     6.72855e-02
 h31bf                                  1      0.0000       0.00000       A     2.53506e-01     6.72855e-02
 h32bf                                  1      0.0000       0.00000       A     2.62399e-01     6.76733e-02
 h33bf                                  1      0.0000       0.00000       A     2.62381e-01     6.75967e-02
 h34bf                                  1      0.0000       0.00000       A     1.10952e-01     4.04428e-02
 h35bf                                  1      0.0000       0.00000       A     2.62441e-01     6.73190e-02
 h36bf                                  1      0.0000       0.00000       A     2.62462e-01     6.73206e-02
 h37bf                                  1      0.0000       0.00000       A     2.62481e-01     6.70908e-02
 h38bf                                  1      0.0000       0.00000       A     2.42177e-01     8.76912e-02
 h39bf                                  1      0.0000       0.00000       A     2.42177e-01     8.76912e-02
 h40bf                                  1      0.0000       0.00000       A     2.60153e-01     8.69874e-02
 h41bf                                  1      0.0000       0.00000       A     2.60153e-01     8.69874e-02
 h42bf                                  1      0.0000       0.00000       A     2.53583e-01     6.80915e-02
 h43bf                                  1      0.0000       0.00000       A     2.53644e-01     6.69998e-02
 h44bf                                  1      0.0000       0.00000       A     2.62744e-01     6.79622e-02
 h45bf                                  1      0.0000       0.00000       A     2.42021e-01     8.71597e-02
 h46bf                                  1      0.0000       0.00000       A     2.42021e-01     8.71597e-02
 h47bf                                  1      0.0000       0.00000       A     2.42021e-01     8.71597e-02

[ moleculetype ]
;name             nrexcl
 58                    3

[ atoms ]
;       nr            type      resi   res      atom      cgnr      charge          mass ; qtot
         1            n0bf         1   UNL        n0         1    -0.62285       14.0070 ; qtot   -0.623
         2            n1bf         1   UNL        n1         2    -0.62228       14.0070 ; qtot   -1.245
         3            c2bf         1   UNL        c2         3     0.29317       12.0110 ; qtot   -0.952
         4            c3bf         1   UNL        c3         4     0.29405       12.0110 ; qtot   -0.658
         5            c4bf         1   UNL        c4         5     0.21901       12.0110 ; qtot   -0.439
         6            c5bf         1   UNL        c5         6     0.25847       12.0110 ; qtot   -0.180
         7            c6bf         1   UNL        c6         7    -0.14199       12.0110 ; qtot   -0.322
         8            c7bf         1   UNL        c7         8     0.30813       12.0110 ; qtot   -0.014
         9            c8bf         1   UNL        c8         9    -0.13223       12.0110 ; qtot   -0.147
        10            c9bf         1   UNL        c9        10     0.03141       12.0110 ; qtot   -0.115
        11           c10bf         1   UNL       c10        11    -0.07346       12.0110 ; qtot   -0.189
        12           n11bf         1   UNL       n11        12    -0.96404       14.0070 ; qtot   -1.153
        13           c12bf         1   UNL       c12        13    -0.06012       12.0110 ; qtot   -1.213
        14           c13bf         1   UNL       c13        14    -0.14657       12.0110 ; qtot   -1.359
        15           c14bf         1   UNL       c14        15    -0.03272       12.0110 ; qtot   -1.392
        16           c15bf         1   UNL       c15        16    -0.17524       12.0110 ; qtot   -1.567
        17           c16bf         1   UNL       c16        17     0.12826       12.0110 ; qtot   -1.439
        18           o17bf         1   UNL       o17        18    -0.33672       15.9990 ; qtot   -1.776
        19           c18bf         1   UNL       c18        19     0.14510       12.0110 ; qtot   -1.631
        20           c19bf         1   UNL       c19        20    -0.04931       12.0110 ; qtot   -1.680
        21           c20bf         1   UNL       c20        21     0.35358       12.0110 ; qtot   -1.326
        22           c21bf         1   UNL       c21        22     0.27846       12.0110 ; qtot   -1.048
        23           n22bf         1   UNL       n22        23    -0.60355       14.0070 ; qtot   -1.651
        24           c23bf         1   UNL       c23        24     0.28639       12.0110 ; qtot   -1.365
        25           c24bf         1   UNL       c24        25    -0.03902       12.0110 ; qtot   -1.404
        26           c25bf         1   UNL       c25        26    -0.27733       12.0110 ; qtot   -1.681
        27           s26bf         1   UNL       s26        27     0.99436       32.0670 ; qtot   -0.687
        28           o27bf         1   UNL       o27        28    -0.51400       15.9990 ; qtot   -1.201
        29           o28bf         1   UNL       o28        29    -0.51400       15.9990 ; qtot   -1.715
        30           c29bf         1   UNL       c29        30    -0.29607       12.0110 ; qtot   -2.011
        31           h30bf         1   UNL       h30        31     0.03158        1.0080 ; qtot   -1.980
        32           h31bf         1   UNL       h31        32     0.03160        1.0080 ; qtot   -1.948
        33           h32bf         1   UNL       h32        33     0.14328        1.0080 ; qtot   -1.805
        34           h33bf         1   UNL       h33        34     0.12730        1.0080 ; qtot   -1.677
        35           h34bf         1   UNL       h34        35     0.51181        1.0080 ; qtot   -1.166
        36           h35bf         1   UNL       h35        36     0.12454        1.0080 ; qtot   -1.041
        37           h36bf         1   UNL       h36        37     0.13255        1.0080 ; qtot   -0.908
        38           h37bf         1   UNL       h37        38     0.12463        1.0080 ; qtot   -0.784
        39           h38bf         1   UNL       h38        39     0.05941        1.0080 ; qtot   -0.724
        40           h39bf         1   UNL       h39        40     0.05941        1.0080 ; qtot   -0.665
        41           h40bf         1   UNL       h40        41     0.06367        1.0080 ; qtot   -0.601
        42           h41bf         1   UNL       h41        42     0.06367        1.0080 ; qtot   -0.538
        43           h42bf         1   UNL       h42        43     0.03589        1.0080 ; qtot   -0.502
        44           h43bf         1   UNL       h43        44     0.03700        1.0080 ; qtot   -0.465
        45           h44bf         1   UNL       h44        45     0.15079        1.0080 ; qtot   -0.314
        46           h45bf         1   UNL       h45        46     0.10467        1.0080 ; qtot   -0.209
        47           h46bf         1   UNL       h46        47     0.10467        1.0080 ; qtot   -0.105
        48           h47bf         1   UNL       h47        48     0.10464        1.0080 ; qtot   -0.000

[ bonds ]
;       ai        aj funct               r               k
         1         4     1        0.131846   380187.291016
         1         6     1        0.136675   270922.861377
         2         3     1        0.131881   374103.176855
         2         5     1        0.136378   268382.225439
         3         4     1        0.142216   238192.510107
         3        31     1        0.108820   315940.162988
         4        32     1        0.108836   315483.763770
         5         6     1        0.143386   223579.435547
         5        10     1        0.143464   236949.593457
         6         7     1        0.141521   284458.984961
         7         8     1        0.138622   325678.790723
         7        33     1        0.108434   324306.120020
         8         9     1        0.142346   251378.162402
         8        12     1        0.140593   260287.089453
         9        10     1        0.138637   330443.172607
         9        34     1        0.108420   321509.091504
        10        11     1        0.148319   213849.107373
        11        13     1        0.140736   281890.794482
        11        15     1        0.141220   268677.766406
        12        21     1        0.138908   287909.048437
        12        35     1        0.101485   406811.259766
        13        14     1        0.140009   312446.379980
        13        36     1        0.108482   322300.997266
        14        17     1        0.139206   309656.399707
        14        37     1        0.108517   322820.166699
        15        16     1        0.138744   332010.487158
        15        38     1        0.108595   318677.741113
        16        17     1        0.139958   276102.553271
        16        20     1        0.151382   188069.510376
        17        18     1        0.136699   259884.011719
        18        19     1        0.145702   150656.202295
        19        20     1        0.154749   162006.911133
        19        39     1        0.109303   303126.586377
        19        40     1        0.109303   303126.586377
        20        41     1        0.109458   300141.323828
        20        42     1        0.109458   300141.323828
        21        22     1        0.141520   257222.712939
        21        26     1        0.141314   265581.391895
        22        23     1        0.133244   341315.111719
        22        43     1        0.108642   319937.154736
        23        24     1        0.133977   313656.532520
        24        25     1        0.139506   299656.731641
        24        44     1        0.108702   319547.177539
        25        26     1        0.139402   313134.068799
        25        45     1        0.108446   326160.114160
        26        27     1        0.180715   124483.627490
        27        28     1        0.147464   495020.215039
        27        29     1        0.147464   495020.215039
        27        30     1        0.180772   140787.539600
        30        46     1        0.109028   319230.108789
        30        47     1        0.109028   319230.108789
        30        48     1        0.109028   319230.108789

[ angles ]
;       ai        aj        ak funct           theta             cth
         1         4         3     1      122.299545      738.442227
         1         4        32     1      117.380966      342.428057
         1         6         5     1      121.322975      705.924740
         1         6         7     1      118.281189      431.308051
         2         3         4     1      122.256546      732.863901
         2         3        31     1      117.339157      362.478934
         2         5         6     1      120.208412      782.715531
         2         5        10     1      120.406250      430.775092
         3         2         5     1      117.611557      602.011178
         3         4        32     1      120.145851      429.987304
         4         1         6     1      116.661819      559.934704
         4         3        31     1      120.142014      430.475797
         5         6         7     1      120.564919      663.113500
         5        10         9     1      118.251930      533.549954
         5        10        11     1      122.709793      442.670820
         6         5        10     1      118.951096      695.804065
         6         7         8     1      120.257889      537.525444
         6         7        33     1      117.843239      439.647833
         7         8         9     1      119.340256      642.053685
         7         8        12     1      121.254745      492.361151
         8         7        33     1      121.917038      423.581639
         8         9        10     1      122.427536      713.150593
         8         9        34     1      118.470383      447.200912
         8        12        21     1      126.297546      421.362177
         8        12        35     1      115.426346      433.799388
         9         8        12     1      119.236771      541.059844
         9        10        11     1      119.266190      471.736902
        10         9        34     1      118.686905      416.055310
        10        11        13     1      120.581078      497.021194
        10        11        15     1      120.324806      450.102278
        11        13        14     1      121.938660      653.846658
        11        13        36     1      119.121910      409.112089
        11        15        16     1      119.799500      716.937491
        11        15        38     1      119.615768      403.334829
        12        21        22     1      122.505417      578.362793
        12        21        26     1      121.389572      543.101025
        13        11        15     1      118.860229      643.121200
        13        14        17     1      117.557816      806.428077
        13        14        37     1      121.507431      427.925438
        14        13        36     1      119.106606      405.786775
        14        17        16     1      121.864395      576.781663
        14        17        18     1      124.756912      573.708400
        15        16        17     1      119.880592      716.253288
        15        16        20     1      132.111420      448.621222
        16        15        38     1      120.740196      401.032403
        16        17        18     1      113.328857      381.744225
        16        20        19     1      101.321083      456.105638
        16        20        41     1      112.065895      459.335061
        16        20        42     1      112.065895      459.335061
        17        14        37     1      121.012497      436.254621
        17        16        20     1      108.010292      447.080025
        17        18        19     1      107.180099      559.582228
        18        19        20     1      106.958580      445.136013
        18        19        39     1      107.373779      476.067837
        18        19        40     1      107.373779      476.067837
        19        20        41     1      111.628319      463.416721
        19        20        42     1      111.628319      463.416721
        20        19        39     1      112.748215      420.833591
        20        19        40     1      112.748215      420.833591
        21        12        35     1      114.551170      450.222622
        21        22        23     1      124.232620      770.104221
        21        22        43     1      119.153419      415.430290
        21        26        25     1      120.275772      760.585135
        21        26        27     1      121.663406      744.979280
        22        21        26     1      115.672928      673.644813
        22        23        24     1      118.320412      693.264846
        23        22        43     1      116.504784      340.209553
        23        24        25     1      122.754715      730.070077
        23        24        44     1      116.530663      356.374383
        24        25        26     1      118.684898      679.603897
        24        25        45     1      121.212906      424.346412
        25        24        44     1      120.538696      415.343304
        25        26        27     1      117.699501      539.880923
        26        25        45     1      120.270645      343.599700
        26        27        28     1      107.938034      640.902216
        26        27        29     1      107.938034      640.902216
        26        27        30     1      103.486069      654.077513
        27        30        46     1      107.672256      569.998368
        27        30        47     1      107.672256      569.998368
        27        30        48     1      107.672256      569.998368
        28        27        29     1      120.015259      741.792249
        28        27        30     1      107.539932      732.341412
        29        27        30     1      107.539932      732.341412
        39        19        40     1      109.249184      344.406066
        41        20        42     1      107.659592      360.208333
        46        30        47     1      111.147987      344.776258
        46        30        48     1      111.147987      344.776258
        47        30        48     1      111.147987      344.776258

[ dihedrals ] ; propers for gromacs 4.5 or higher, use funct 9
;       ai        aj        ak        al funct           phase               k        pn
         1         4         3         2     9        0.000000       -0.713202         1
         1         4         3         2     9      180.000000       11.742391         2
         1         4         3         2     9        0.000000       -0.552181         3
         1         4         3         2     9      180.000000       -0.521535         4
         1         4         3        31     9        0.000000       -0.199021         1
         1         4         3        31     9      180.000000        9.267617         2
         1         4         3        31     9        0.000000       -0.318099         3
         1         4         3        31     9      180.000000       -0.090080         4
         1         6         5         2     9        0.000000        0.159899         1
         1         6         5         2     9      180.000000       11.086216         2
         1         6         5         2     9        0.000000        0.160518         3
         1         6         5         2     9      180.000000       -0.397158         4
         1         6         5        10     9        0.000000       -0.307973         1
         1         6         5        10     9      180.000000       10.141855         2
         1         6         5        10     9        0.000000        0.086719         3
         1         6         5        10     9      180.000000       -0.275404         4
         1         6         7         8     9        0.000000       -0.306896         1
         1         6         7         8     9      180.000000       14.010278         2
         1         6         7         8     9        0.000000       -0.425194         3
         1         6         7         8     9      180.000000       -0.392180         4
         1         6         7        33     9        0.000000        0.016940         1
         1         6         7        33     9      180.000000       11.980066         2
         1         6         7        33     9        0.000000       -0.349904         3
         1         6         7        33     9      180.000000        0.012863         4
         2         3         4        32     9        0.000000       -0.026031         1
         2         3         4        32     9      180.000000        9.508287         2
         2         3         4        32     9        0.000000       -0.255749         3
         2         3         4        32     9      180.000000       -0.134502         4
         2         5         6         7     9        0.000000        0.340548         1
         2         5         6         7     9      180.000000       11.179590         2
         2         5         6         7     9        0.000000       -0.065208         3
         2         5         6         7     9      180.000000       -0.244500         4
         2         5        10         9     9        0.000000        0.043915         1
         2         5        10         9     9      180.000000        9.534600         2
         2         5        10         9     9        0.000000       -0.296600         3
         2         5        10         9     9      180.000000       -0.083624         4
         2         5        10        11     9        0.000000       -0.454000         1
         2         5        10        11     9      180.000000       12.350666         2
         2         5        10        11     9        0.000000       -0.155286         3
         2         5        10        11     9      180.000000       -0.459969         4
         3         2         5         6     9        0.000000        0.188121         1
         3         2         5         6     9      180.000000       16.793790         2
         3         2         5         6     9        0.000000       -0.050993         3
         3         2         5         6     9      180.000000       -0.239062         4
         3         2         5        10     9        0.000000        0.589680         1
         3         2         5        10     9      180.000000       16.385629         2
         3         2         5        10     9        0.000000        0.377515         3
         3         2         5        10     9      180.000000       -0.367371         4
         3         4         1         6     9        0.000000       -0.161990         1
         3         4         1         6     9      180.000000       25.805860         2
         3         4         1         6     9        0.000000       -0.989157         3
         3         4         1         6     9      180.000000       -0.201960         4
         4         1         6         5     9        0.000000       -0.107916         1
         4         1         6         5     9      180.000000       16.440884         2
         4         1         6         5     9        0.000000        0.043441         3
         4         1         6         5     9      180.000000       -0.231040         4
         4         1         6         7     9        0.000000       -0.023334         1
         4         1         6         7     9      180.000000       18.424196         2
         4         1         6         7     9        0.000000        0.154346         3
         4         1         6         7     9      180.000000       -0.275637         4
         4         3         2         5     9        0.000000        0.103245         1
         4         3         2         5     9      180.000000       25.050129         2
         4         3         2         5     9        0.000000       -0.948796         3
         4         3         2         5     9      180.000000       -0.159022         4
         5         2         3        31     9        0.000000        0.727426         1
         5         2         3        31     9      180.000000       22.903272         2
         5         2         3        31     9        0.000000        0.106514         3
         5         2         3        31     9      180.000000       -0.552430         4
         5         6         7         8     9        0.000000       -0.535156         1
         5         6         7         8     9      180.000000       13.643161         2
         5         6         7         8     9        0.000000       -0.954561         3
         5         6         7         8     9      180.000000       -0.185752         4
         5         6         7        33     9        0.000000       -0.170721         1
         5         6         7        33     9      180.000000       10.545501         2
         5         6         7        33     9        0.000000       -0.262492         3
         5         6         7        33     9      180.000000       -0.003794         4
         5        10         9         8     9        0.000000       -0.214549         1
         5        10         9         8     9      180.000000       19.298597         2
         5        10         9         8     9        0.000000       -1.517247         3
         5        10         9         8     9      180.000000       -0.306406         4
         5        10         9        34     9        0.000000        0.204122         1
         5        10         9        34     9      180.000000       15.597578         2
         5        10         9        34     9        0.000000       -0.331565         3
         5        10         9        34     9      180.000000        0.183438         4
         5        10        11        13     9        0.000000        0.082746         1
         5        10        11        13     9      180.000000        4.035668         2
         5        10        11        13     9        0.000000       -0.228728         3
         5        10        11        13     9      180.000000        0.711202         4
         5        10        11        15     9        0.000000        0.089009         1
         5        10        11        15     9      180.000000        4.121229         2
         5        10        11        15     9        0.000000       -0.075359         3
         5        10        11        15     9      180.000000        0.703525         4
         6         1         4        32     9        0.000000        0.808512         1
         6         1         4        32     9      180.000000       23.535888         2
         6         1         4        32     9        0.000000        0.064005         3
         6         1         4        32     9      180.000000       -0.475717         4
         6         5        10         9     9        0.000000       -0.416057         1
         6         5        10         9     9      180.000000       10.466200         2
         6         5        10         9     9        0.000000       -0.865984         3
         6         5        10         9     9      180.000000        0.038466         4
         6         5        10        11     9        0.000000        0.132980         1
         6         5        10        11     9      180.000000       12.553023         2
         6         5        10        11     9        0.000000       -0.043286         3
         6         5        10        11     9      180.000000       -0.422173         4
         6         7         8         9     9        0.000000       -0.172695         1
         6         7         8         9     9      180.000000       17.269977         2
         6         7         8         9     9        0.000000       -1.150047         3
         6         7         8         9     9      180.000000       -0.415713         4
         6         7         8        12     9        0.000000        0.246511         1
         6         7         8        12     9      180.000000       19.522853         2
         6         7         8        12     9        0.000000        0.055608         3
         6         7         8        12     9      180.000000       -0.772829         4
         7         6         5        10     9        0.000000        0.154577         1
         7         6         5        10     9      180.000000       11.503460         2
         7         6         5        10     9        0.000000       -0.463255         3
         7         6         5        10     9      180.000000       -0.210776         4
         7         8         9        10     9        0.000000        0.164014         1
         7         8         9        10     9      180.000000       14.153446         2
         7         8         9        10     9        0.000000       -0.842737         3
         7         8         9        10     9      180.000000       -0.231229         4
         7         8         9        34     9        0.000000       -0.064754         1
         7         8         9        34     9      180.000000       11.935983         2
         7         8         9        34     9        0.000000       -0.432953         3
         7         8         9        34     9      180.000000        0.110544         4
         7         8        12        21     9        0.000000       -0.167872         1
         7         8        12        21     9      180.000000        3.526327         2
         7         8        12        21     9        0.000000       -0.356690         3
         7         8        12        21     9      180.000000        0.139573         4
         7         8        12        35     9        0.000000       -0.457732         1
         7         8        12        35     9      180.000000        3.512782         2
         7         8        12        35     9        0.000000       -0.099182         3
         7         8        12        35     9      180.000000        0.073473         4
         8         9        10        11     9        0.000000        0.317788         1
         8         9        10        11     9      180.000000       19.226752         2
         8         9        10        11     9        0.000000        0.015172         3
         8         9        10        11     9      180.000000       -0.783238         4
         8        12        21        22     9        0.000000        1.786048         1
         8        12        21        22     9      180.000000        3.116500         2
         8        12        21        22     9        0.000000       -0.286578         3
         8        12        21        22     9      180.000000        0.145436         4
         8        12        21        26     9        0.000000       -1.816149         1
         8        12        21        26     9      180.000000        4.619860         2
         8        12        21        26     9        0.000000       -0.590149         3
         8        12        21        26     9      180.000000        0.059913         4
         9         8         7        33     9        0.000000        0.057194         1
         9         8         7        33     9      180.000000       13.340746         2
         9         8         7        33     9        0.000000       -0.358398         3
         9         8         7        33     9      180.000000        0.131357         4
         9         8        12        21     9        0.000000       -0.235194         1
         9         8        12        21     9      180.000000        3.390104         2
         9         8        12        21     9        0.000000        0.020231         3
         9         8        12        21     9      180.000000        0.120802         4
         9         8        12        35     9        0.000000       -0.401553         1
         9         8        12        35     9      180.000000        3.316239         2
         9         8        12        35     9        0.000000        0.053715         3
         9         8        12        35     9      180.000000        0.093664         4
         9        10        11        13     9        0.000000       -0.444316         1
         9        10        11        13     9      180.000000        4.512938         2
         9        10        11        13     9        0.000000        0.083069         3
         9        10        11        13     9      180.000000        0.571311         4
         9        10        11        15     9        0.000000       -0.481463         1
         9        10        11        15     9      180.000000        4.568817         2
         9        10        11        15     9        0.000000        0.033818         3
         9        10        11        15     9      180.000000        0.573325         4
        10         9         8        12     9        0.000000        0.203058         1
        10         9         8        12     9      180.000000       15.557338         2
        10         9         8        12     9        0.000000        0.098688         3
        10         9         8        12     9      180.000000       -0.440755         4
        10        11        13        14     9        0.000000        0.211089         1
        10        11        13        14     9      180.000000       15.197136         2
        10        11        13        14     9        0.000000       -0.158703         3
        10        11        13        14     9      180.000000       -0.169736         4
        10        11        13        36     9        0.000000       -0.019415         1
        10        11        13        36     9      180.000000       12.912053         2
        10        11        13        36     9        0.000000       -0.198463         3
        10        11        13        36     9      180.000000        0.180420         4
        10        11        15        16     9        0.000000        0.082298         1
        10        11        15        16     9      180.000000       15.507324         2
        10        11        15        16     9        0.000000       -0.128223         3
        10        11        15        16     9      180.000000       -0.343306         4
        10        11        15        38     9        0.000000       -0.045068         1
        10        11        15        38     9      180.000000       12.720599         2
        10        11        15        38     9        0.000000       -0.138134         3
        10        11        15        38     9      180.000000        0.116724         4
        11        10         9        34     9        0.000000       -0.011805         1
        11        10         9        34     9      180.000000       14.940946         2
        11        10         9        34     9        0.000000       -0.172459         3
        11        10         9        34     9      180.000000        0.106797         4
        11        13        14        17     9        0.000000       -0.140412         1
        11        13        14        17     9      180.000000       19.245318         2
        11        13        14        17     9        0.000000       -1.693122         3
        11        13        14        17     9      180.000000       -0.519327         4
        11        13        14        37     9        0.000000        0.003183         1
        11        13        14        37     9      180.000000       13.909555         2
        11        13        14        37     9        0.000000       -0.441402         3
        11        13        14        37     9      180.000000        0.141179         4
        11        15        16        17     9        0.000000       -0.004572         1
        11        15        16        17     9      180.000000       20.478663         2
        11        15        16        17     9        0.000000       -2.241677         3
        11        15        16        17     9      180.000000       -0.541387         4
        11        15        16        20     9        0.000000        0.131703         1
        11        15        16        20     9      180.000000       14.184226         2
        11        15        16        20     9        0.000000       -0.019108         3
        11        15        16        20     9      180.000000       -0.244858         4
        12         8         7        33     9        0.000000       -0.006423         1
        12         8         7        33     9      180.000000       15.238161         2
        12         8         7        33     9        0.000000       -0.072527         3
        12         8         7        33     9      180.000000        0.161232         4
        12         8         9        34     9        0.000000       -0.058686         1
        12         8         9        34     9      180.000000       14.053045         2
        12         8         9        34     9        0.000000       -0.041462         3
        12         8         9        34     9      180.000000        0.138031         4
        12        21        22        23     9        0.000000        0.186749         1
        12        21        22        23     9      180.000000       16.683915         2
        12        21        22        23     9        0.000000        0.179115         3
        12        21        22        23     9      180.000000       -0.684725         4
        12        21        22        43     9        0.000000       -0.299543         1
        12        21        22        43     9      180.000000       14.371222         2
        12        21        22        43     9        0.000000       -0.253274         3
        12        21        22        43     9      180.000000        0.145399         4
        12        21        26        25     9        0.000000        0.142199         1
        12        21        26        25     9      180.000000       15.897984         2
        12        21        26        25     9        0.000000        0.030266         3
        12        21        26        25     9      180.000000       -0.460852         4
        12        21        26        27     9        0.000000       -0.927876         1
        12        21        26        27     9      180.000000       13.516794         2
        12        21        26        27     9        0.000000       -0.073922         3
        12        21        26        27     9      180.000000       -0.622706         4
        13        11        15        16     9        0.000000       -0.088547         1
        13        11        15        16     9      180.000000       18.567268         2
        13        11        15        16     9        0.000000       -1.546838         3
        13        11        15        16     9      180.000000       -0.322774         4
        13        11        15        38     9        0.000000        0.105546         1
        13        11        15        38     9      180.000000       13.648398         2
        13        11        15        38     9        0.000000       -0.635674         3
        13        11        15        38     9      180.000000        0.118379         4
        13        14        17        16     9        0.000000       -0.143078         1
        13        14        17        16     9      180.000000       17.696969         2
        13        14        17        16     9        0.000000       -1.804316         3
        13        14        17        16     9      180.000000       -0.320627         4
        13        14        17        18     9        0.000000        0.623747         1
        13        14        17        18     9      180.000000       18.652815         2
        13        14        17        18     9        0.000000        0.360959         3
        13        14        17        18     9      180.000000       -0.471074         4
        14        13        11        15     9        0.000000       -0.110861         1
        14        13        11        15     9      180.000000       18.574827         2
        14        13        11        15     9        0.000000       -1.441101         3
        14        13        11        15     9      180.000000       -0.373700         4
        14        17        16        15     9        0.000000       -0.013794         1
        14        17        16        15     9      180.000000       12.296196         2
        14        17        16        15     9        0.000000       -1.256363         3
        14        17        16        15     9      180.000000       -0.041382         4
        14        17        16        20     9        0.000000       -0.049248         1
        14        17        16        20     9      180.000000       11.979866         2
        14        17        16        20     9        0.000000       -1.156102         3
        14        17        16        20     9      180.000000       -0.075968         4
        14        17        18        19     9        0.000000        0.662628         1
        14        17        18        19     9      180.000000        6.872941         2
        14        17        18        19     9        0.000000        0.842983         3
        14        17        18        19     9      180.000000        0.025076         4
        15        11        13        36     9        0.000000        0.029607         1
        15        11        13        36     9      180.000000       14.008046         2
        15        11        13        36     9        0.000000       -0.672846         3
        15        11        13        36     9      180.000000        0.126049         4
        15        16        17        18     9        0.000000        0.057490         1
        15        16        17        18     9      180.000000       13.406634         2
        15        16        17        18     9        0.000000       -1.624325         3
        15        16        17        18     9      180.000000        0.035898         4
        15        16        20        19     9        0.000000        0.225169         1
        15        16        20        19     9      180.000000        1.689162         2
        15        16        20        19     9        0.000000       -0.374592         3
        15        16        20        19     9      180.000000        1.025332         4
        15        16        20        41     9        0.000000        0.028816         1
        15        16        20        41     9      180.000000       -0.148432         2
        15        16        20        41     9        0.000000       -0.120083         3
        15        16        20        41     9      180.000000        0.131706         4
        15        16        20        42     9        0.000000        0.028816         1
        15        16        20        42     9      180.000000       -0.148432         2
        15        16        20        42     9        0.000000       -0.120083         3
        15        16        20        42     9      180.000000        0.131706         4
        16        17        14        37     9        0.000000        0.167843         1
        16        17        14        37     9      180.000000       12.219518         2
        16        17        14        37     9        0.000000       -0.476163         3
        16        17        14        37     9      180.000000       -0.067945         4
        16        17        18        19     9        0.000000       -0.355221         1
        16        17        18        19     9      180.000000       16.717858         2
        16        17        18        19     9        0.000000       -2.158017         3
        16        17        18        19     9      180.000000       -1.403154         4
        16        20        19        18     9        0.000000       -0.594819         1
        16        20        19        18     9      180.000000        3.474927         2
        16        20        19        18     9        0.000000       -0.040671         3
        16        20        19        18     9      180.000000       -2.732462         4
        16        20        19        39     9        0.000000        0.037528         1
        16        20        19        39     9      180.000000       -0.050113         2
        16        20        19        39     9        0.000000        0.289900         3
        16        20        19        39     9      180.000000        0.064859         4
        16        20        19        40     9        0.000000        0.037528         1
        16        20        19        40     9      180.000000       -0.050113         2
        16        20        19        40     9        0.000000        0.289900         3
        16        20        19        40     9      180.000000        0.064859         4
        17        14        13        36     9        0.000000        0.161655         1
        17        14        13        36     9      180.000000       15.545550         2
        17        14        13        36     9        0.000000       -0.538144         3
        17        14        13        36     9      180.000000       -0.000971         4
        17        16        15        38     9        0.000000        0.403223         1
        17        16        15        38     9      180.000000       15.281970         2
        17        16        15        38     9        0.000000       -0.507366         3
        17        16        15        38     9      180.000000       -0.123117         4
        17        16        20        19     9        0.000000        0.274952         1
        17        16        20        19     9      180.000000       20.635568         2
        17        16        20        19     9        0.000000       -3.021018         3
        17        16        20        19     9      180.000000       -3.118911         4
        17        16        20        41     9        0.000000        0.026391         1
        17        16        20        41     9      180.000000       -0.076784         2
        17        16        20        41     9        0.000000       -0.509227         3
        17        16        20        41     9      180.000000        0.515944         4
        17        16        20        42     9        0.000000        0.026391         1
        17        16        20        42     9      180.000000       -0.076784         2
        17        16        20        42     9        0.000000       -0.509227         3
        17        16        20        42     9      180.000000        0.515944         4
        17        18        19        20     9        0.000000       -0.283443         1
        17        18        19        20     9      180.000000        5.327317         2
        17        18        19        20     9        0.000000       -0.154398         3
        17        18        19        20     9      180.000000       -2.439382         4
        17        18        19        39     9        0.000000       -0.005648         1
        17        18        19        39     9      180.000000       -0.210959         2
        17        18        19        39     9        0.000000        0.054743         3
        17        18        19        39     9      180.000000        0.199614         4
        17        18        19        40     9        0.000000       -0.005648         1
        17        18        19        40     9      180.000000       -0.210959         2
        17        18        19        40     9        0.000000        0.054743         3
        17        18        19        40     9      180.000000        0.199614         4
        18        17        14        37     9        0.000000        0.120722         1
        18        17        14        37     9      180.000000       12.691054         2
        18        17        14        37     9        0.000000       -0.062019         3
        18        17        14        37     9      180.000000        0.121107         4
        18        17        16        20     9        0.000000       -0.164791         1
        18        17        16        20     9      180.000000       20.337104         2
        18        17        16        20     9        0.000000       -4.069250         3
        18        17        16        20     9      180.000000       -0.501990         4
        18        19        20        41     9        0.000000       -0.017646         1
        18        19        20        41     9      180.000000        0.022558         2
        18        19        20        41     9        0.000000        0.282924         3
        18        19        20        41     9      180.000000        0.083000         4
        18        19        20        42     9        0.000000       -0.017646         1
        18        19        20        42     9      180.000000        0.022558         2
        18        19        20        42     9        0.000000        0.282924         3
        18        19        20        42     9      180.000000        0.083000         4
        20        16        15        38     9        0.000000       -0.161705         1
        20        16        15        38     9      180.000000       10.628480         2
        20        16        15        38     9        0.000000       -0.266720         3
        20        16        15        38     9      180.000000        0.074044         4
        21        22        23        24     9        0.000000        0.319722         1
        21        22        23        24     9      180.000000       22.949103         2
        21        22        23        24     9        0.000000       -0.741217         3
        21        22        23        24     9      180.000000        0.175923         4
        21        26        25        24     9        0.000000       -0.049560         1
        21        26        25        24     9      180.000000       18.886873         2
        21        26        25        24     9        0.000000       -2.021565         3
        21        26        25        24     9      180.000000       -0.405198         4
        21        26        25        45     9        0.000000        0.229105         1
        21        26        25        45     9      180.000000       14.976778         2
        21        26        25        45     9        0.000000       -0.507226         3
        21        26        25        45     9      180.000000        0.085320         4
        21        26        27        28     9        0.000000       -1.334284         1
        21        26        27        28     9      180.000000        0.814377         2
        21        26        27        28     9        0.000000        0.785313         3
        21        26        27        28     9      180.000000       -0.187784         4
        21        26        27        29     9        0.000000       -1.334284         1
        21        26        27        29     9      180.000000        0.814377         2
        21        26        27        29     9        0.000000        0.785313         3
        21        26        27        29     9      180.000000       -0.187784         4
        21        26        27        30     9        0.000000        3.729086         1
        21        26        27        30     9      180.000000       -2.195929         2
        21        26        27        30     9        0.000000        0.799429         3
        21        26        27        30     9      180.000000        0.054293         4
        22        21        12        35     9        0.000000       -1.272590         1
        22        21        12        35     9      180.000000        2.989698         2
        22        21        12        35     9        0.000000       -0.423806         3
        22        21        12        35     9      180.000000        0.040258         4
        22        21        26        25     9        0.000000       -0.037262         1
        22        21        26        25     9      180.000000       14.380146         2
        22        21        26        25     9        0.000000       -0.900346         3
        22        21        26        25     9      180.000000       -0.221952         4
        22        21        26        27     9        0.000000        0.366400         1
        22        21        26        27     9      180.000000       11.025740         2
        22        21        26        27     9        0.000000        0.150288         3
        22        21        26        27     9      180.000000       -0.363523         4
        22        23        24        25     9        0.000000        0.177563         1
        22        23        24        25     9      180.000000       22.523858         2
        22        23        24        25     9        0.000000       -0.901753         3
        22        23        24        25     9      180.000000       -0.193725         4
        22        23        24        44     9        0.000000        0.988694         1
        22        23        24        44     9      180.000000       20.417146         2
        22        23        24        44     9        0.000000        0.253449         3
        22        23        24        44     9      180.000000       -0.430136         4
        23        22        21        26     9        0.000000       -0.510166         1
        23        22        21        26     9      180.000000       14.375531         2
        23        22        21        26     9        0.000000       -0.595358         3
        23        22        21        26     9      180.000000       -0.489937         4
        23        24        25        26     9        0.000000       -0.220827         1
        23        24        25        26     9      180.000000       18.549630         2
        23        24        25        26     9        0.000000       -1.222990         3
        23        24        25        26     9      180.000000       -0.581963         4
        23        24        25        45     9        0.000000        0.066372         1
        23        24        25        45     9      180.000000       14.573594         2
        23        24        25        45     9        0.000000       -0.318036         3
        23        24        25        45     9      180.000000       -0.017204         4
        24        23        22        43     9        0.000000        1.115355         1
        24        23        22        43     9      180.000000       20.962220         2
        24        23        22        43     9        0.000000        0.247396         3
        24        23        22        43     9      180.000000       -0.016300         4
        24        25        26        27     9        0.000000        0.192523         1
        24        25        26        27     9      180.000000       13.995352         2
        24        25        26        27     9        0.000000        0.189776         3
        24        25        26        27     9      180.000000       -0.443900         4
        25        26        27        28     9        0.000000       -0.090527         1
        25        26        27        28     9      180.000000        0.655864         2
        25        26        27        28     9        0.000000       -0.321290         3
        25        26        27        28     9      180.000000       -0.045698         4
        25        26        27        29     9        0.000000       -0.090527         1
        25        26        27        29     9      180.000000        0.655864         2
        25        26        27        29     9        0.000000       -0.321290         3
        25        26        27        29     9      180.000000       -0.045698         4
        25        26        27        30     9        0.000000        0.119864         1
        25        26        27        30     9      180.000000       -0.559450         2
        25        26        27        30     9        0.000000       -0.551232         3
        25        26        27        30     9      180.000000        0.255504         4
        26        21        12        35     9        0.000000        2.440457         1
        26        21        12        35     9      180.000000        3.205590         2
        26        21        12        35     9        0.000000       -0.727467         3
        26        21        12        35     9      180.000000        0.027701         4
        26        21        22        43     9        0.000000        0.058995         1
        26        21        22        43     9      180.000000       12.296401         2
        26        21        22        43     9        0.000000       -0.329284         3
        26        21        22        43     9      180.000000        0.069067         4
        26        25        24        44     9        0.000000        0.008007         1
        26        25        24        44     9      180.000000       14.871302         2
        26        25        24        44     9        0.000000       -0.365300         3
        26        25        24        44     9      180.000000       -0.122426         4
        26        27        30        46     9        0.000000        0.134670         1
        26        27        30        46     9      180.000000       -0.180389         2
        26        27        30        46     9        0.000000        0.326690         3
        26        27        30        46     9      180.000000       -0.016353         4
        26        27        30        47     9        0.000000        0.134670         1
        26        27        30        47     9      180.000000       -0.180389         2
        26        27        30        47     9        0.000000        0.326690         3
        26        27        30        47     9      180.000000       -0.016353         4
        26        27        30        48     9        0.000000        0.134670         1
        26        27        30        48     9      180.000000       -0.180389         2
        26        27        30        48     9        0.000000        0.326690         3
        26        27        30        48     9      180.000000       -0.016353         4
        27        26        25        45     9        0.000000       -0.032266         1
        27        26        25        45     9      180.000000       12.082715         2
        27        26        25        45     9        0.000000       -0.269976         3
        27        26        25        45     9      180.000000        0.014566         4
        28        27        30        46     9        0.000000       -0.020339         1
        28        27        30        46     9      180.000000       -0.042566         2
        28        27        30        46     9        0.000000        0.357266         3
        28        27        30        46     9      180.000000        0.004050         4
        28        27        30        47     9        0.000000       -0.020339         1
        28        27        30        47     9      180.000000       -0.042566         2
        28        27        30        47     9        0.000000        0.357266         3
        28        27        30        47     9      180.000000        0.004050         4
        28        27        30        48     9        0.000000       -0.020339         1
        28        27        30        48     9      180.000000       -0.042566         2
        28        27        30        48     9        0.000000        0.357266         3
        28        27        30        48     9      180.000000        0.004050         4
        29        27        30        46     9        0.000000       -0.020339         1
        29        27        30        46     9      180.000000       -0.042566         2
        29        27        30        46     9        0.000000        0.357266         3
        29        27        30        46     9      180.000000        0.004050         4
        29        27        30        47     9        0.000000       -0.020339         1
        29        27        30        47     9      180.000000       -0.042566         2
        29        27        30        47     9        0.000000        0.357266         3
        29        27        30        47     9      180.000000        0.004050         4
        29        27        30        48     9        0.000000       -0.020339         1
        29        27        30        48     9      180.000000       -0.042566         2
        29        27        30        48     9        0.000000        0.357266         3
        29        27        30        48     9      180.000000        0.004050         4
        31         3         4        32     9        0.000000       -0.431714         1
        31         3         4        32     9      180.000000        6.869070         2
        31         3         4        32     9        0.000000       -0.569257         3
        31         3         4        32     9      180.000000        0.186658         4
        36        13        14        37     9        0.000000       -0.156640         1
        36        13        14        37     9      180.000000       12.100251         2
        36        13        14        37     9        0.000000       -0.746715         3
        36        13        14        37     9      180.000000        0.308931         4
        39        19        20        41     9        0.000000       -0.037032         1
        39        19        20        41     9      180.000000        0.008324         2
        39        19        20        41     9        0.000000        0.353316         3
        39        19        20        41     9      180.000000       -0.013515         4
        39        19        20        42     9        0.000000       -0.037032         1
        39        19        20        42     9      180.000000        0.008324         2
        39        19        20        42     9        0.000000        0.353316         3
        39        19        20        42     9      180.000000       -0.013515         4
        40        19        20        41     9        0.000000       -0.037032         1
        40        19        20        41     9      180.000000        0.008324         2
        40        19        20        41     9        0.000000        0.353316         3
        40        19        20        41     9      180.000000       -0.013515         4
        40        19        20        42     9        0.000000       -0.037032         1
        40        19        20        42     9      180.000000        0.008324         2
        40        19        20        42     9        0.000000        0.353316         3
        40        19        20        42     9      180.000000       -0.013515         4
        44        24        25        45     9        0.000000       -0.049751         1
        44        24        25        45     9      180.000000       11.944935         2
        44        24        25        45     9        0.000000       -0.710211         3
        44        24        25        45     9      180.000000        0.205813         4

[ dihedrals ] ; impropers
;       ai        aj        ak        al funct           phase               k        pn
         3         2         4        31     4      180.000000        4.409854         2
         3         4        31         2     4      180.000000        4.409854         2
         3        31         2         4     4      180.000000        4.409854         2
         4         1         3        32     4      180.000000        4.162410         2
         4         3        32         1     4      180.000000        4.162410         2
         4        32         1         3     4      180.000000        4.162410         2
        10         5         9        11     4      180.000000        0.303855         2
        10         9        11         5     4      180.000000        0.303855         2
        10        11         5         9     4      180.000000        0.303855         2
        22        21        23        43     4      180.000000        3.547250         2
        22        23        43        21     4      180.000000        3.547250         2
        22        43        21        23     4      180.000000        3.547250         2
        24        23        25        44     4      180.000000        3.347115         2
        24        25        44        23     4      180.000000        3.347115         2
        24        44        23        25     4      180.000000        3.347115         2

[ pairs ]
;       ai        aj funct
         1         2     1
         1         8     1
         1        10     1
         1        31     1
         1        33     1
         2         7     1
         2         9     1
         2        11     1
         2        32     1
         3         6     1
         3        10     1
         4         5     1
         4         7     1
         5         8     1
         5        13     1
         5        15     1
         5        31     1
         5        33     1
         5        34     1
         6         9     1
         6        11     1
         6        12     1
         6        32     1
         7        10     1
         7        21     1
         7        34     1
         7        35     1
         8        11     1
         8        22     1
         8        26     1
         9        13     1
         9        15     1
         9        21     1
         9        33     1
         9        35     1
        10        12     1
        10        14     1
        10        16     1
        10        36     1
        10        38     1
        11        17     1
        11        20     1
        11        34     1
        11        37     1
        12        23     1
        12        25     1
        12        27     1
        12        33     1
        12        34     1
        12        43     1
        13        16     1
        13        18     1
        13        38     1
        14        15     1
        14        19     1
        14        20     1
        15        18     1
        15        19     1
        15        36     1
        15        41     1
        15        42     1
        16        37     1
        16        39     1
        16        40     1
        17        36     1
        17        38     1
        17        39     1
        17        40     1
        17        41     1
        17        42     1
        18        37     1
        18        41     1
        18        42     1
        20        38     1
        21        24     1
        21        28     1
        21        29     1
        21        30     1
        21        45     1
        22        25     1
        22        27     1
        22        35     1
        22        44     1
        23        26     1
        23        45     1
        24        27     1
        24        43     1
        25        28     1
        25        29     1
        25        30     1
        26        35     1
        26        43     1
        26        44     1
        26        46     1
        26        47     1
        26        48     1
        27        45     1
        28        46     1
        28        47     1
        28        48     1
        29        46     1
        29        47     1
        29        48     1
        31        32     1
        36        37     1
        39        41     1
        39        42     1
        40        41     1
        40        42     1
        44        45     1
