; ITP file created by ByteFF-ML, 2026-02-21 07:42:54.141412

[ atomtypes ]
;name           bonded.type        at.num        mass        charge   ptype           sigma         epsilon
 n0bf                                   7      0.0000       0.00000       A     3.38456e-01     3.92772e-01
 n1bf                                   7      0.0000       0.00000       A     3.38246e-01     3.93082e-01
 c2bf                                   6      0.0000       0.00000       A     3.31514e-01     4.13144e-01
 c3bf                                   6      0.0000       0.00000       A     3.31562e-01     4.13392e-01
 c4bf                                   6      0.0000       0.00000       A     3.31577e-01     4.11649e-01
 c5bf                                   6      0.0000       0.00000       A     3.31387e-01     4.12836e-01
 c6bf                                   6      0.0000       0.00000       A     3.31696e-01     4.13506e-01
 c7bf                                   6      0.0000       0.00000       A     3.31534e-01     4.11219e-01
 c8bf                                   6      0.0000       0.00000       A     3.31574e-01     4.14344e-01
 c9bf                                   6      0.0000       0.00000       A     3.31163e-01     4.10429e-01
 c10bf                                  6      0.0000       0.00000       A     3.31449e-01     4.09646e-01
 n11bf                                  7      0.0000       0.00000       A     3.27929e-01     6.45227e-01
 c12bf                                  6      0.0000       0.00000       A     3.31446e-01     4.13246e-01
 c13bf                                  6      0.0000       0.00000       A     3.31481e-01     4.11779e-01
 c14bf                                  6      0.0000       0.00000       A     3.31541e-01     4.13294e-01
 c15bf                                  6      0.0000       0.00000       A     3.31581e-01     4.12886e-01
 c16bf                                  6      0.0000       0.00000       A     3.31706e-01     4.11679e-01
 n17bf                                  7      0.0000       0.00000       A     3.38344e-01     3.92967e-01
 c18bf                                  6      0.0000       0.00000       A     3.31482e-01     4.12140e-01
 c19bf                                  6      0.0000       0.00000       A     3.31194e-01     4.12903e-01
 c20bf                                  6      0.0000       0.00000       A     3.31298e-01     4.15822e-01
 s21bf                                 16      0.0000       0.00000       A     4.05645e-01     2.55727e-01
 o22bf                                  8      0.0000       0.00000       A     3.04857e-01     6.11370e-01
 o23bf                                  8      0.0000       0.00000       A     3.04857e-01     6.11370e-01
 c24bf                                  6      0.0000       0.00000       A     3.39611e-01     4.49156e-01
 c25bf                                  6      0.0000       0.00000       A     3.31296e-01     4.13388e-01
 c26bf                                  6      0.0000       0.00000       A     3.31396e-01     4.12822e-01
 o27bf                                  8      0.0000       0.00000       A     3.15683e-01     3.03710e-01
 c28bf                                  6      0.0000       0.00000       A     3.39794e-01     4.52687e-01
 c29bf                                  6      0.0000       0.00000       A     3.39794e-01     4.52687e-01
 o30bf                                  8      0.0000       0.00000       A     3.15623e-01     3.03933e-01
 h31bf                                  1      0.0000       0.00000       A     2.53506e-01     6.72855e-02
 h32bf                                  1      0.0000       0.00000       A     2.53506e-01     6.72855e-02
 h33bf                                  1      0.0000       0.00000       A     2.62399e-01     6.76733e-02
 h34bf                                  1      0.0000       0.00000       A     2.62381e-01     6.75967e-02
 h35bf                                  1      0.0000       0.00000       A     1.10952e-01     4.04428e-02
 h36bf                                  1      0.0000       0.00000       A     2.62469e-01     6.75696e-02
 h37bf                                  1      0.0000       0.00000       A     2.62465e-01     6.69120e-02
 h38bf                                  1      0.0000       0.00000       A     2.62407e-01     6.72280e-02
 h39bf                                  1      0.0000       0.00000       A     2.53583e-01     6.80915e-02
 h40bf                                  1      0.0000       0.00000       A     2.53644e-01     6.69998e-02
 h41bf                                  1      0.0000       0.00000       A     2.62744e-01     6.79622e-02
 h42bf                                  1      0.0000       0.00000       A     2.42021e-01     8.71597e-02
 h43bf                                  1      0.0000       0.00000       A     2.42021e-01     8.71597e-02
 h44bf                                  1      0.0000       0.00000       A     2.42021e-01     8.71597e-02
 h45bf                                  1      0.0000       0.00000       A     2.42108e-01     8.64415e-02
 h46bf                                  1      0.0000       0.00000       A     2.42108e-01     8.64415e-02
 h47bf                                  1      0.0000       0.00000       A     2.42108e-01     8.64415e-02
 h48bf                                  1      0.0000       0.00000       A     2.42109e-01     8.64415e-02

[ moleculetype ]
;name             nrexcl
 59_flip               3

[ atoms ]
;       nr            type      resi   res      atom      cgnr      charge          mass ; qtot
         1            n0bf         1   UNL        n0         1    -0.62285       14.0070 ; qtot   -0.623
         2            n1bf         1   UNL        n1         2    -0.62245       14.0070 ; qtot   -1.245
         3            c2bf         1   UNL        c2         3     0.29317       12.0110 ; qtot   -0.952
         4            c3bf         1   UNL        c3         4     0.29405       12.0110 ; qtot   -0.658
         5            c4bf         1   UNL        c4         5     0.21996       12.0110 ; qtot   -0.438
         6            c5bf         1   UNL        c5         6     0.25868       12.0110 ; qtot   -0.179
         7            c6bf         1   UNL        c6         7    -0.14199       12.0110 ; qtot   -0.321
         8            c7bf         1   UNL        c7         8     0.30829       12.0110 ; qtot   -0.013
         9            c8bf         1   UNL        c8         9    -0.13022       12.0110 ; qtot   -0.143
        10            c9bf         1   UNL        c9        10     0.02806       12.0110 ; qtot   -0.115
        11           c10bf         1   UNL       c10        11    -0.03874       12.0110 ; qtot   -0.154
        12           n11bf         1   UNL       n11        12    -0.96404       14.0070 ; qtot   -1.118
        13           c12bf         1   UNL       c12        13    -0.08235       12.0110 ; qtot   -1.200
        14           c13bf         1   UNL       c13        14    -0.11397       12.0110 ; qtot   -1.314
        15           c14bf         1   UNL       c14        15    -0.07777       12.0110 ; qtot   -1.392
        16           c15bf         1   UNL       c15        16     0.35358       12.0110 ; qtot   -1.039
        17           c16bf         1   UNL       c16        17     0.27846       12.0110 ; qtot   -0.760
        18           n17bf         1   UNL       n17        18    -0.60355       14.0070 ; qtot   -1.364
        19           c18bf         1   UNL       c18        19     0.28639       12.0110 ; qtot   -1.077
        20           c19bf         1   UNL       c19        20    -0.03902       12.0110 ; qtot   -1.116
        21           c20bf         1   UNL       c20        21    -0.27733       12.0110 ; qtot   -1.394
        22           s21bf         1   UNL       s21        22     0.99436       32.0670 ; qtot   -0.399
        23           o22bf         1   UNL       o22        23    -0.51400       15.9990 ; qtot   -0.913
        24           o23bf         1   UNL       o23        24    -0.51400       15.9990 ; qtot   -1.427
        25           c24bf         1   UNL       c24        25    -0.29607       12.0110 ; qtot   -1.723
        26           c25bf         1   UNL       c25        26     0.04683       12.0110 ; qtot   -1.677
        27           c26bf         1   UNL       c26        27     0.06345       12.0110 ; qtot   -1.613
        28           o27bf         1   UNL       o27        28    -0.33470       15.9990 ; qtot   -1.948
        29           c28bf         1   UNL       c28        29     0.11680       12.0110 ; qtot   -1.831
        30           c29bf         1   UNL       c29        30     0.11683       12.0110 ; qtot   -1.714
        31           o30bf         1   UNL       o30        31    -0.33665       15.9990 ; qtot   -2.051
        32           h31bf         1   UNL       h31        32     0.03158        1.0080 ; qtot   -2.019
        33           h32bf         1   UNL       h32        33     0.03160        1.0080 ; qtot   -1.988
        34           h33bf         1   UNL       h33        34     0.14328        1.0080 ; qtot   -1.844
        35           h34bf         1   UNL       h34        35     0.12779        1.0080 ; qtot   -1.717
        36           h35bf         1   UNL       h35        36     0.51181        1.0080 ; qtot   -1.205
        37           h36bf         1   UNL       h36        37     0.12576        1.0080 ; qtot   -1.079
        38           h37bf         1   UNL       h37        38     0.13119        1.0080 ; qtot   -0.948
        39           h38bf         1   UNL       h38        39     0.13548        1.0080 ; qtot   -0.812
        40           h39bf         1   UNL       h39        40     0.03589        1.0080 ; qtot   -0.776
        41           h40bf         1   UNL       h40        41     0.03700        1.0080 ; qtot   -0.739
        42           h41bf         1   UNL       h41        42     0.15079        1.0080 ; qtot   -0.589
        43           h42bf         1   UNL       h42        43     0.10467        1.0080 ; qtot   -0.484
        44           h43bf         1   UNL       h43        44     0.10467        1.0080 ; qtot   -0.379
        45           h44bf         1   UNL       h44        45     0.10467        1.0080 ; qtot   -0.275
        46           h45bf         1   UNL       h45        46     0.06865        1.0080 ; qtot   -0.206
        47           h46bf         1   UNL       h46        47     0.06865        1.0080 ; qtot   -0.137
        48           h47bf         1   UNL       h47        48     0.06865        1.0080 ; qtot   -0.069
        49           h48bf         1   UNL       h48        49     0.06866        1.0080 ; qtot   -0.000

[ bonds ]
;       ai        aj funct               r               k
         1         4     1        0.131846   380187.291016
         1         6     1        0.136675   270922.861377
         2         3     1        0.131881   374103.176855
         2         5     1        0.136375   268502.556299
         3         4     1        0.142216   238192.510107
         3        32     1        0.108820   315940.162988
         4        33     1        0.108836   315483.763770
         5         6     1        0.143378   223727.193262
         5        10     1        0.143434   237716.779297
         6         7     1        0.141521   284458.984961
         7         8     1        0.138622   325678.790723
         7        34     1        0.108434   324306.120020
         8         9     1        0.142357   251191.026465
         8        12     1        0.140593   260287.089453
         9        10     1        0.138622   330564.448340
         9        35     1        0.108420   321586.315723
        10        11     1        0.148317   214599.055664
        11        13     1        0.140640   283691.288379
        11        15     1        0.140375   286436.655322
        12        16     1        0.138908   287909.048437
        12        36     1        0.101485   406811.259766
        13        14     1        0.139393   323566.335498
        13        37     1        0.108472   322636.503809
        14        27     1        0.139700   297882.157910
        14        38     1        0.108564   320710.111963
        15        26     1        0.139417   305764.850684
        15        39     1        0.108459   322541.122705
        16        17     1        0.141520   257222.712939
        16        21     1        0.141314   265581.366357
        17        18     1        0.133244   341315.137256
        17        40     1        0.108642   319937.154736
        18        19     1        0.133977   313656.558057
        19        20     1        0.139506   299656.731641
        19        41     1        0.108702   319547.177539
        20        21     1        0.139402   313134.068799
        20        42     1        0.108446   326160.114160
        21        22     1        0.180715   124483.627490
        22        23     1        0.147464   495020.215039
        22        24     1        0.147464   495020.215039
        22        25     1        0.180772   140787.539600
        25        43     1        0.109028   319230.108789
        25        44     1        0.109028   319230.108789
        25        45     1        0.109028   319230.108789
        26        27     1        0.140708   266761.257422
        26        31     1        0.137718   259964.045020
        27        28     1        0.137358   264238.446387
        28        29     1        0.143219   192041.182080
        29        30     1        0.151897   190983.907446
        29        46     1        0.109442   298761.758105
        29        47     1        0.109442   298761.758105
        30        31     1        0.143221   192041.284229
        30        48     1        0.109442   298761.758105
        30        49     1        0.109442   298761.758105

[ angles ]
;       ai        aj        ak funct           theta             cth
         1         4         3     1      122.299545      738.442227
         1         4        33     1      117.380966      342.428057
         1         6         5     1      121.315636      706.309457
         1         6         7     1      118.281189      431.308051
         2         3         4     1      122.256546      732.863901
         2         3        32     1      117.339157      362.478934
         2         5         6     1      120.220924      782.408638
         2         5        10     1      120.397827      431.088560
         3         2         5     1      117.605759      601.724205
         3         4        33     1      120.145851      429.987304
         4         1         6     1      116.661819      559.934704
         4         3        32     1      120.142014      430.475797
         5         6         7     1      120.560707      663.409667
         5        10         9     1      118.332008      532.693982
         5        10        11     1      122.644798      446.798957
         6         5        10     1      118.933304      696.059883
         6         7         8     1      120.257889      537.525444
         6         7        34     1      117.843239      439.647833
         7         8         9     1      119.330116      642.915818
         7         8        12     1      121.254745      492.361151
         8         7        34     1      121.917038      423.581639
         8         9        10     1      122.392494      713.801598
         8         9        35     1      118.490845      446.958245
         8        12        16     1      126.297546      421.362177
         8        12        36     1      115.426346      433.799388
         9         8        12     1      119.240646      540.643206
         9        10        11     1      119.171104      475.177773
        10         9        35     1      118.688736      415.207702
        10        11        13     1      120.870346      502.809691
        10        11        15     1      120.426132      437.031013
        11        13        14     1      120.794777      665.624692
        11        13        37     1      119.503525      412.856724
        11        15        26     1      121.034218      714.749663
        11        15        39     1      120.744553      399.514605
        12        16        17     1      122.505417      578.362793
        12        16        21     1      121.389572      543.101025
        13        11        15     1      118.511925      648.033901
        13        14        27     1      120.277977      747.995341
        13        14        38     1      121.134949      424.813134
        14        13        37     1      119.686630      409.135584
        14        27        26     1      119.308182      639.452922
        14        27        28     1      118.436234      557.667264
        15        26        27     1      119.866844      687.583414
        15        26        31     1      118.080811      542.049534
        16        12        36     1      114.551170      450.222622
        16        17        18     1      124.232620      770.104221
        16        17        40     1      119.153419      415.430290
        16        21        20     1      120.275772      760.585008
        16        21        22     1      121.663406      744.979280
        17        16        21     1      115.672928      673.644813
        17        18        19     1      118.320412      693.264846
        18        17        40     1      116.504784      340.209521
        18        19        20     1      122.754715      730.070077
        18        19        41     1      116.530663      356.374383
        19        20        21     1      118.684891      679.603961
        19        20        42     1      121.212906      424.346476
        20        19        41     1      120.538696      415.343272
        20        21        22     1      117.699501      539.880923
        21        20        42     1      120.270653      343.599700
        21        22        23     1      107.938034      640.902280
        21        22        24     1      107.938034      640.902280
        21        22        25     1      103.486084      654.077513
        22        25        43     1      107.672241      569.998432
        22        25        44     1      107.672241      569.998432
        22        25        45     1      107.672241      569.998432
        23        22        24     1      120.015259      741.792249
        23        22        25     1      107.539932      732.341412
        24        22        25     1      107.539932      732.341412
        26        15        39     1      118.229202      424.317810
        26        27        28     1      122.117065      411.681889
        26        31        30     1      113.412987      536.419113
        27        14        38     1      118.383705      440.765305
        27        26        31     1      121.965958      374.680309
        27        28        29     1      113.660522      539.286866
        28        29        30     1      110.177956      636.201026
        28        29        46     1      107.950783      478.894763
        28        29        47     1      107.950783      478.894763
        29        30        31     1      110.163879      637.686073
        29        30        48     1      110.714684      467.910997
        29        30        49     1      110.714684      467.910997
        30        29        46     1      110.714684      467.910997
        30        29        47     1      110.714684      467.910997
        31        30        48     1      107.949562      478.943953
        31        30        49     1      107.949562      478.943953
        43        25        44     1      111.147987      344.776258
        43        25        45     1      111.147987      344.776258
        44        25        45     1      111.147987      344.776258
        46        29        47     1      109.354446      336.749626
        48        30        49     1      109.354446      336.749626

[ dihedrals ] ; propers for gromacs 4.5 or higher, use funct 9
;       ai        aj        ak        al funct           phase               k        pn
         1         4         3         2     9        0.000000       -0.713202         1
         1         4         3         2     9      180.000000       11.742391         2
         1         4         3         2     9        0.000000       -0.552181         3
         1         4         3         2     9      180.000000       -0.521535         4
         1         4         3        32     9        0.000000       -0.199021         1
         1         4         3        32     9      180.000000        9.267617         2
         1         4         3        32     9        0.000000       -0.318099         3
         1         4         3        32     9      180.000000       -0.090080         4
         1         6         5         2     9        0.000000        0.157762         1
         1         6         5         2     9      180.000000       11.099419         2
         1         6         5         2     9        0.000000        0.156884         3
         1         6         5         2     9      180.000000       -0.397912         4
         1         6         5        10     9        0.000000       -0.300702         1
         1         6         5        10     9      180.000000       10.010754         2
         1         6         5        10     9        0.000000        0.087694         3
         1         6         5        10     9      180.000000       -0.262358         4
         1         6         7         8     9        0.000000       -0.306896         1
         1         6         7         8     9      180.000000       14.010278         2
         1         6         7         8     9        0.000000       -0.425194         3
         1         6         7         8     9      180.000000       -0.392180         4
         1         6         7        34     9        0.000000        0.016940         1
         1         6         7        34     9      180.000000       11.980066         2
         1         6         7        34     9        0.000000       -0.349904         3
         1         6         7        34     9      180.000000        0.012863         4
         2         3         4        33     9        0.000000       -0.026031         1
         2         3         4        33     9      180.000000        9.508287         2
         2         3         4        33     9        0.000000       -0.255749         3
         2         3         4        33     9      180.000000       -0.134502         4
         2         5         6         7     9        0.000000        0.335884         1
         2         5         6         7     9      180.000000       11.192442         2
         2         5         6         7     9        0.000000       -0.068590         3
         2         5         6         7     9      180.000000       -0.248220         4
         2         5        10         9     9        0.000000        0.063611         1
         2         5        10         9     9      180.000000        9.610514         2
         2         5        10         9     9        0.000000       -0.285240         3
         2         5        10         9     9      180.000000       -0.084726         4
         2         5        10        11     9        0.000000       -0.465123         1
         2         5        10        11     9      180.000000       12.452866         2
         2         5        10        11     9        0.000000       -0.130280         3
         2         5        10        11     9      180.000000       -0.465438         4
         3         2         5         6     9        0.000000        0.177274         1
         3         2         5         6     9      180.000000       16.829310         2
         3         2         5         6     9        0.000000       -0.055150         3
         3         2         5         6     9      180.000000       -0.238302         4
         3         2         5        10     9        0.000000        0.539660         1
         3         2         5        10     9      180.000000       16.446061         2
         3         2         5        10     9        0.000000        0.369553         3
         3         2         5        10     9      180.000000       -0.347967         4
         3         4         1         6     9        0.000000       -0.161990         1
         3         4         1         6     9      180.000000       25.805860         2
         3         4         1         6     9        0.000000       -0.989157         3
         3         4         1         6     9      180.000000       -0.201960         4
         4         1         6         5     9        0.000000       -0.109280         1
         4         1         6         5     9      180.000000       16.450054         2
         4         1         6         5     9        0.000000        0.039587         3
         4         1         6         5     9      180.000000       -0.230694         4
         4         1         6         7     9        0.000000       -0.023334         1
         4         1         6         7     9      180.000000       18.424196         2
         4         1         6         7     9        0.000000        0.154346         3
         4         1         6         7     9      180.000000       -0.275637         4
         4         3         2         5     9        0.000000        0.104195         1
         4         3         2         5     9      180.000000       25.058221         2
         4         3         2         5     9        0.000000       -0.950142         3
         4         3         2         5     9      180.000000       -0.156817         4
         5         2         3        32     9        0.000000        0.728165         1
         5         2         3        32     9      180.000000       22.913548         2
         5         2         3        32     9        0.000000        0.102231         3
         5         2         3        32     9      180.000000       -0.551945         4
         5         6         7         8     9        0.000000       -0.534458         1
         5         6         7         8     9      180.000000       13.667426         2
         5         6         7         8     9        0.000000       -0.958356         3
         5         6         7         8     9      180.000000       -0.187925         4
         5         6         7        34     9        0.000000       -0.168358         1
         5         6         7        34     9      180.000000       10.549025         2
         5         6         7        34     9        0.000000       -0.262757         3
         5         6         7        34     9      180.000000       -0.005738         4
         5        10         9         8     9        0.000000       -0.223171         1
         5        10         9         8     9      180.000000       19.445473         2
         5        10         9         8     9        0.000000       -1.549119         3
         5        10         9         8     9      180.000000       -0.311921         4
         5        10         9        35     9        0.000000        0.195174         1
         5        10         9        35     9      180.000000       15.700861         2
         5        10         9        35     9        0.000000       -0.324944         3
         5        10         9        35     9      180.000000        0.182779         4
         5        10        11        13     9        0.000000        0.084347         1
         5        10        11        13     9      180.000000        4.080640         2
         5        10        11        13     9        0.000000       -0.166187         3
         5        10        11        13     9      180.000000        0.735317         4
         5        10        11        15     9        0.000000       -0.640949         1
         5        10        11        15     9      180.000000        4.143579         2
         5        10        11        15     9        0.000000       -0.207848         3
         5        10        11        15     9      180.000000        0.748051         4
         6         1         4        33     9        0.000000        0.808512         1
         6         1         4        33     9      180.000000       23.535888         2
         6         1         4        33     9        0.000000        0.064005         3
         6         1         4        33     9      180.000000       -0.475717         4
         6         5        10         9     9        0.000000       -0.421932         1
         6         5        10         9     9      180.000000       10.535082         2
         6         5        10         9     9        0.000000       -0.859883         3
         6         5        10         9     9      180.000000        0.042798         4
         6         5        10        11     9        0.000000        0.092426         1
         6         5        10        11     9      180.000000       12.670770         2
         6         5        10        11     9        0.000000       -0.024763         3
         6         5        10        11     9      180.000000       -0.433762         4
         6         7         8         9     9        0.000000       -0.169276         1
         6         7         8         9     9      180.000000       17.290788         2
         6         7         8         9     9        0.000000       -1.145650         3
         6         7         8         9     9      180.000000       -0.420422         4
         6         7         8        12     9        0.000000        0.246511         1
         6         7         8        12     9      180.000000       19.522853         2
         6         7         8        12     9        0.000000        0.055608         3
         6         7         8        12     9      180.000000       -0.772829         4
         7         6         5        10     9        0.000000        0.121305         1
         7         6         5        10     9      180.000000       11.529918         2
         7         6         5        10     9        0.000000       -0.463104         3
         7         6         5        10     9      180.000000       -0.217255         4
         7         8         9        10     9        0.000000        0.166406         1
         7         8         9        10     9      180.000000       14.166805         2
         7         8         9        10     9        0.000000       -0.827736         3
         7         8         9        10     9      180.000000       -0.234795         4
         7         8         9        35     9        0.000000       -0.059916         1
         7         8         9        35     9      180.000000       11.916377         2
         7         8         9        35     9        0.000000       -0.431755         3
         7         8         9        35     9      180.000000        0.111844         4
         7         8        12        16     9        0.000000       -0.167872         1
         7         8        12        16     9      180.000000        3.526327         2
         7         8        12        16     9        0.000000       -0.356690         3
         7         8        12        16     9      180.000000        0.139573         4
         7         8        12        36     9        0.000000       -0.457732         1
         7         8        12        36     9      180.000000        3.512782         2
         7         8        12        36     9        0.000000       -0.099182         3
         7         8        12        36     9      180.000000        0.073473         4
         8         9        10        11     9        0.000000        0.338696         1
         8         9        10        11     9      180.000000       19.287929         2
         8         9        10        11     9        0.000000        0.016483         3
         8         9        10        11     9      180.000000       -0.807022         4
         8        12        16        17     9        0.000000        1.786048         1
         8        12        16        17     9      180.000000        3.116500         2
         8        12        16        17     9        0.000000       -0.286578         3
         8        12        16        17     9      180.000000        0.145436         4
         8        12        16        21     9        0.000000       -1.816147         1
         8        12        16        21     9      180.000000        4.619861         2
         8        12        16        21     9        0.000000       -0.590150         3
         8        12        16        21     9      180.000000        0.059912         4
         9         8         7        34     9        0.000000        0.052604         1
         9         8         7        34     9      180.000000       13.350158         2
         9         8         7        34     9        0.000000       -0.358525         3
         9         8         7        34     9      180.000000        0.130723         4
         9         8        12        16     9        0.000000       -0.235662         1
         9         8        12        16     9      180.000000        3.395939         2
         9         8        12        16     9        0.000000        0.029032         3
         9         8        12        16     9      180.000000        0.117358         4
         9         8        12        36     9        0.000000       -0.422783         1
         9         8        12        36     9      180.000000        3.325943         2
         9         8        12        36     9        0.000000        0.046573         3
         9         8        12        36     9      180.000000        0.091536         4
         9        10        11        13     9        0.000000       -0.442486         1
         9        10        11        13     9      180.000000        4.537770         2
         9        10        11        13     9        0.000000        0.095877         3
         9        10        11        13     9      180.000000        0.613168         4
         9        10        11        15     9        0.000000       -0.173210         1
         9        10        11        15     9      180.000000        4.485471         2
         9        10        11        15     9        0.000000        0.075858         3
         9        10        11        15     9      180.000000        0.611402         4
        10         9         8        12     9        0.000000        0.198044         1
        10         9         8        12     9      180.000000       15.519223         2
        10         9         8        12     9        0.000000        0.102746         3
        10         9         8        12     9      180.000000       -0.428820         4
        10        11        13        14     9        0.000000        0.182561         1
        10        11        13        14     9      180.000000       15.068430         2
        10        11        13        14     9        0.000000       -0.136457         3
        10        11        13        14     9      180.000000       -0.158447         4
        10        11        13        37     9        0.000000       -0.061785         1
        10        11        13        37     9      180.000000       12.731959         2
        10        11        13        37     9        0.000000       -0.202834         3
        10        11        13        37     9      180.000000        0.193762         4
        10        11        15        26     9        0.000000        0.107579         1
        10        11        15        26     9      180.000000       15.627169         2
        10        11        15        26     9        0.000000       -0.180349         3
        10        11        15        26     9      180.000000       -0.395606         4
        10        11        15        39     9        0.000000       -0.010810         1
        10        11        15        39     9      180.000000       12.973895         2
        10        11        15        39     9        0.000000       -0.135414         3
        10        11        15        39     9      180.000000        0.158687         4
        11        10         9        35     9        0.000000       -0.036826         1
        11        10         9        35     9      180.000000       14.967046         2
        11        10         9        35     9        0.000000       -0.180108         3
        11        10         9        35     9      180.000000        0.076651         4
        11        13        14        27     9        0.000000       -0.030134         1
        11        13        14        27     9      180.000000       18.689455         2
        11        13        14        27     9        0.000000       -1.619094         3
        11        13        14        27     9      180.000000       -0.478724         4
        11        13        14        38     9        0.000000        0.038639         1
        11        13        14        38     9      180.000000       14.120324         2
        11        13        14        38     9        0.000000       -0.425965         3
        11        13        14        38     9      180.000000        0.163149         4
        11        15        26        27     9        0.000000       -0.029151         1
        11        15        26        27     9      180.000000       17.137192         2
        11        15        26        27     9        0.000000       -1.158209         3
        11        15        26        27     9      180.000000       -0.434437         4
        11        15        26        31     9        0.000000        0.397865         1
        11        15        26        31     9      180.000000       19.850991         2
        11        15        26        31     9        0.000000        0.717910         3
        11        15        26        31     9      180.000000       -0.510711         4
        12         8         7        34     9        0.000000       -0.006423         1
        12         8         7        34     9      180.000000       15.238161         2
        12         8         7        34     9        0.000000       -0.072527         3
        12         8         7        34     9      180.000000        0.161232         4
        12         8         9        35     9        0.000000       -0.061775         1
        12         8         9        35     9      180.000000       14.036980         2
        12         8         9        35     9        0.000000       -0.045828         3
        12         8         9        35     9      180.000000        0.143934         4
        12        16        17        18     9        0.000000        0.186749         1
        12        16        17        18     9      180.000000       16.683915         2
        12        16        17        18     9        0.000000        0.179115         3
        12        16        17        18     9      180.000000       -0.684725         4
        12        16        17        40     9        0.000000       -0.299543         1
        12        16        17        40     9      180.000000       14.371222         2
        12        16        17        40     9        0.000000       -0.253274         3
        12        16        17        40     9      180.000000        0.145399         4
        12        16        21        20     9        0.000000        0.142200         1
        12        16        21        20     9      180.000000       15.897984         2
        12        16        21        20     9        0.000000        0.030266         3
        12        16        21        20     9      180.000000       -0.460852         4
        12        16        21        22     9        0.000000       -0.927876         1
        12        16        21        22     9      180.000000       13.516792         2
        12        16        21        22     9        0.000000       -0.073923         3
        12        16        21        22     9      180.000000       -0.622706         4
        13        11        15        26     9        0.000000       -0.067855         1
        13        11        15        26     9      180.000000       18.622955         2
        13        11        15        26     9        0.000000       -1.604335         3
        13        11        15        26     9      180.000000       -0.333026         4
        13        11        15        39     9        0.000000        0.046489         1
        13        11        15        39     9      180.000000       14.075035         2
        13        11        15        39     9        0.000000       -0.549613         3
        13        11        15        39     9      180.000000        0.128882         4
        13        14        27        26     9        0.000000        0.099967         1
        13        14        27        26     9      180.000000       17.373773         2
        13        14        27        26     9        0.000000       -1.123467         3
        13        14        27        26     9      180.000000       -0.354174         4
        13        14        27        28     9        0.000000        0.457709         1
        13        14        27        28     9      180.000000       19.760970         2
        13        14        27        28     9        0.000000        0.703457         3
        13        14        27        28     9      180.000000       -0.462047         4
        14        13        11        15     9        0.000000       -0.062838         1
        14        13        11        15     9      180.000000       18.313621         2
        14        13        11        15     9        0.000000       -1.491085         3
        14        13        11        15     9      180.000000       -0.308999         4
        14        27        26        15     9        0.000000        0.097858         1
        14        27        26        15     9      180.000000       13.581586         2
        14        27        26        15     9        0.000000       -0.587739         3
        14        27        26        15     9      180.000000       -0.197219         4
        14        27        26        31     9        0.000000        0.287783         1
        14        27        26        31     9      180.000000       16.332030         2
        14        27        26        31     9        0.000000        0.689752         3
        14        27        26        31     9      180.000000       -0.271642         4
        14        27        28        29     9        0.000000       -0.660602         1
        14        27        28        29     9      180.000000        2.927502         2
        14        27        28        29     9        0.000000       -0.418513         3
        14        27        28        29     9      180.000000        0.229772         4
        15        11        13        37     9        0.000000        0.017082         1
        15        11        13        37     9      180.000000       13.866177         2
        15        11        13        37     9        0.000000       -0.603170         3
        15        11        13        37     9      180.000000        0.105081         4
        15        26        27        28     9        0.000000        0.180289         1
        15        26        27        28     9      180.000000       15.725321         2
        15        26        27        28     9        0.000000        0.680938         3
        15        26        27        28     9      180.000000       -0.202883         4
        15        26        31        30     9        0.000000       -0.911085         1
        15        26        31        30     9      180.000000        2.683779         2
        15        26        31        30     9        0.000000       -0.509337         3
        15        26        31        30     9      180.000000        0.269222         4
        16        17        18        19     9        0.000000        0.319722         1
        16        17        18        19     9      180.000000       22.949103         2
        16        17        18        19     9        0.000000       -0.741217         3
        16        17        18        19     9      180.000000        0.175923         4
        16        21        20        19     9        0.000000       -0.049559         1
        16        21        20        19     9      180.000000       18.886873         2
        16        21        20        19     9        0.000000       -2.021566         3
        16        21        20        19     9      180.000000       -0.405198         4
        16        21        20        42     9        0.000000        0.229105         1
        16        21        20        42     9      180.000000       14.976782         2
        16        21        20        42     9        0.000000       -0.507226         3
        16        21        20        42     9      180.000000        0.085320         4
        16        21        22        23     9        0.000000       -1.334284         1
        16        21        22        23     9      180.000000        0.814377         2
        16        21        22        23     9        0.000000        0.785313         3
        16        21        22        23     9      180.000000       -0.187784         4
        16        21        22        24     9        0.000000       -1.334284         1
        16        21        22        24     9      180.000000        0.814377         2
        16        21        22        24     9        0.000000        0.785313         3
        16        21        22        24     9      180.000000       -0.187784         4
        16        21        22        25     9        0.000000        3.729086         1
        16        21        22        25     9      180.000000       -2.195929         2
        16        21        22        25     9        0.000000        0.799429         3
        16        21        22        25     9      180.000000        0.054293         4
        17        16        12        36     9        0.000000       -1.272590         1
        17        16        12        36     9      180.000000        2.989698         2
        17        16        12        36     9        0.000000       -0.423806         3
        17        16        12        36     9      180.000000        0.040258         4
        17        16        21        20     9        0.000000       -0.037262         1
        17        16        21        20     9      180.000000       14.380144         2
        17        16        21        20     9        0.000000       -0.900345         3
        17        16        21        20     9      180.000000       -0.221952         4
        17        16        21        22     9        0.000000        0.366401         1
        17        16        21        22     9      180.000000       11.025740         2
        17        16        21        22     9        0.000000        0.150288         3
        17        16        21        22     9      180.000000       -0.363523         4
        17        18        19        20     9        0.000000        0.177563         1
        17        18        19        20     9      180.000000       22.523862         2
        17        18        19        20     9        0.000000       -0.901752         3
        17        18        19        20     9      180.000000       -0.193725         4
        17        18        19        41     9        0.000000        0.988694         1
        17        18        19        41     9      180.000000       20.417146         2
        17        18        19        41     9        0.000000        0.253449         3
        17        18        19        41     9      180.000000       -0.430136         4
        18        17        16        21     9        0.000000       -0.510166         1
        18        17        16        21     9      180.000000       14.375530         2
        18        17        16        21     9        0.000000       -0.595358         3
        18        17        16        21     9      180.000000       -0.489937         4
        18        19        20        21     9        0.000000       -0.220826         1
        18        19        20        21     9      180.000000       18.549630         2
        18        19        20        21     9        0.000000       -1.222990         3
        18        19        20        21     9      180.000000       -0.581963         4
        18        19        20        42     9        0.000000        0.066372         1
        18        19        20        42     9      180.000000       14.573595         2
        18        19        20        42     9        0.000000       -0.318036         3
        18        19        20        42     9      180.000000       -0.017204         4
        19        18        17        40     9        0.000000        1.115355         1
        19        18        17        40     9      180.000000       20.962220         2
        19        18        17        40     9        0.000000        0.247396         3
        19        18        17        40     9      180.000000       -0.016300         4
        19        20        21        22     9        0.000000        0.192524         1
        19        20        21        22     9      180.000000       13.995355         2
        19        20        21        22     9        0.000000        0.189775         3
        19        20        21        22     9      180.000000       -0.443899         4
        20        21        22        23     9        0.000000       -0.090527         1
        20        21        22        23     9      180.000000        0.655865         2
        20        21        22        23     9        0.000000       -0.321290         3
        20        21        22        23     9      180.000000       -0.045698         4
        20        21        22        24     9        0.000000       -0.090527         1
        20        21        22        24     9      180.000000        0.655865         2
        20        21        22        24     9        0.000000       -0.321290         3
        20        21        22        24     9      180.000000       -0.045698         4
        20        21        22        25     9        0.000000        0.119865         1
        20        21        22        25     9      180.000000       -0.559451         2
        20        21        22        25     9        0.000000       -0.551232         3
        20        21        22        25     9      180.000000        0.255504         4
        21        16        12        36     9        0.000000        2.440458         1
        21        16        12        36     9      180.000000        3.205589         2
        21        16        12        36     9        0.000000       -0.727467         3
        21        16        12        36     9      180.000000        0.027702         4
        21        16        17        40     9        0.000000        0.058995         1
        21        16        17        40     9      180.000000       12.296400         2
        21        16        17        40     9        0.000000       -0.329284         3
        21        16        17        40     9      180.000000        0.069067         4
        21        20        19        41     9        0.000000        0.008007         1
        21        20        19        41     9      180.000000       14.871301         2
        21        20        19        41     9        0.000000       -0.365300         3
        21        20        19        41     9      180.000000       -0.122425         4
        21        22        25        43     9        0.000000        0.134670         1
        21        22        25        43     9      180.000000       -0.180389         2
        21        22        25        43     9        0.000000        0.326690         3
        21        22        25        43     9      180.000000       -0.016353         4
        21        22        25        44     9        0.000000        0.134670         1
        21        22        25        44     9      180.000000       -0.180389         2
        21        22        25        44     9        0.000000        0.326690         3
        21        22        25        44     9      180.000000       -0.016353         4
        21        22        25        45     9        0.000000        0.134670         1
        21        22        25        45     9      180.000000       -0.180389         2
        21        22        25        45     9        0.000000        0.326690         3
        21        22        25        45     9      180.000000       -0.016353         4
        22        21        20        42     9        0.000000       -0.032266         1
        22        21        20        42     9      180.000000       12.082713         2
        22        21        20        42     9        0.000000       -0.269976         3
        22        21        20        42     9      180.000000        0.014566         4
        23        22        25        43     9        0.000000       -0.020339         1
        23        22        25        43     9      180.000000       -0.042567         2
        23        22        25        43     9        0.000000        0.357266         3
        23        22        25        43     9      180.000000        0.004050         4
        23        22        25        44     9        0.000000       -0.020339         1
        23        22        25        44     9      180.000000       -0.042567         2
        23        22        25        44     9        0.000000        0.357266         3
        23        22        25        44     9      180.000000        0.004050         4
        23        22        25        45     9        0.000000       -0.020339         1
        23        22        25        45     9      180.000000       -0.042567         2
        23        22        25        45     9        0.000000        0.357266         3
        23        22        25        45     9      180.000000        0.004050         4
        24        22        25        43     9        0.000000       -0.020339         1
        24        22        25        43     9      180.000000       -0.042567         2
        24        22        25        43     9        0.000000        0.357266         3
        24        22        25        43     9      180.000000        0.004050         4
        24        22        25        44     9        0.000000       -0.020339         1
        24        22        25        44     9      180.000000       -0.042567         2
        24        22        25        44     9        0.000000        0.357266         3
        24        22        25        44     9      180.000000        0.004050         4
        24        22        25        45     9        0.000000       -0.020339         1
        24        22        25        45     9      180.000000       -0.042567         2
        24        22        25        45     9        0.000000        0.357266         3
        24        22        25        45     9      180.000000        0.004050         4
        26        27        14        38     9        0.000000        0.109526         1
        26        27        14        38     9      180.000000       12.372229         2
        26        27        14        38     9        0.000000       -0.345161         3
        26        27        14        38     9      180.000000        0.029148         4
        26        27        28        29     9        0.000000        0.177640         1
        26        27        28        29     9      180.000000        1.952872         2
        26        27        28        29     9        0.000000       -0.435728         3
        26        27        28        29     9      180.000000        0.365649         4
        26        31        30        29     9        0.000000        2.627637         1
        26        31        30        29     9      180.000000       -2.809188         2
        26        31        30        29     9        0.000000        0.082984         3
        26        31        30        29     9      180.000000        0.499081         4
        26        31        30        48     9        0.000000       -0.083289         1
        26        31        30        48     9      180.000000        0.174352         2
        26        31        30        48     9        0.000000        0.373762         3
        26        31        30        48     9      180.000000       -0.015689         4
        26        31        30        49     9        0.000000       -0.083289         1
        26        31        30        49     9      180.000000        0.174352         2
        26        31        30        49     9        0.000000        0.373762         3
        26        31        30        49     9      180.000000       -0.015689         4
        27        14        13        37     9        0.000000        0.165980         1
        27        14        13        37     9      180.000000       14.913723         2
        27        14        13        37     9        0.000000       -0.546882         3
        27        14        13        37     9      180.000000        0.045949         4
        27        26        15        39     9        0.000000        0.188227         1
        27        26        15        39     9      180.000000       12.770584         2
        27        26        15        39     9        0.000000       -0.233329         3
        27        26        15        39     9      180.000000        0.047383         4
        27        26        31        30     9        0.000000       -0.178701         1
        27        26        31        30     9      180.000000        1.698540         2
        27        26        31        30     9        0.000000       -0.312711         3
        27        26        31        30     9      180.000000        0.322664         4
        27        28        29        30     9        0.000000        2.867774         1
        27        28        29        30     9      180.000000       -2.913864         2
        27        28        29        30     9        0.000000        0.028532         3
        27        28        29        30     9      180.000000        0.547406         4
        27        28        29        46     9        0.000000       -0.099125         1
        27        28        29        46     9      180.000000        0.141713         2
        27        28        29        46     9        0.000000        0.346337         3
        27        28        29        46     9      180.000000       -0.025288         4
        27        28        29        47     9        0.000000       -0.099125         1
        27        28        29        47     9      180.000000        0.141713         2
        27        28        29        47     9        0.000000        0.346337         3
        27        28        29        47     9      180.000000       -0.025288         4
        28        27        14        38     9        0.000000       -0.028734         1
        28        27        14        38     9      180.000000       14.919579         2
        28        27        14        38     9        0.000000        0.071600         3
        28        27        14        38     9      180.000000        0.187703         4
        28        27        26        31     9        0.000000        0.684086         1
        28        27        26        31     9      180.000000       18.884389         2
        28        27        26        31     9        0.000000        1.500338         3
        28        27        26        31     9      180.000000       -0.905193         4
        28        29        30        31     9        0.000000       -0.046435         1
        28        29        30        31     9      180.000000       -3.169921         2
        28        29        30        31     9        0.000000       -0.076380         3
        28        29        30        31     9      180.000000        0.076009         4
        28        29        30        48     9        0.000000        0.001245         1
        28        29        30        48     9      180.000000        0.096033         2
        28        29        30        48     9        0.000000        0.185872         3
        28        29        30        48     9      180.000000        0.069854         4
        28        29        30        49     9        0.000000        0.001245         1
        28        29        30        49     9      180.000000        0.096033         2
        28        29        30        49     9        0.000000        0.185872         3
        28        29        30        49     9      180.000000        0.069854         4
        31        26        15        39     9        0.000000        0.001932         1
        31        26        15        39     9      180.000000       15.061354         2
        31        26        15        39     9        0.000000        0.131033         3
        31        26        15        39     9      180.000000        0.221654         4
        31        30        29        46     9        0.000000       -0.006312         1
        31        30        29        46     9      180.000000        0.098667         2
        31        30        29        46     9        0.000000        0.188454         3
        31        30        29        46     9      180.000000        0.068583         4
        31        30        29        47     9        0.000000       -0.006312         1
        31        30        29        47     9      180.000000        0.098667         2
        31        30        29        47     9        0.000000        0.188454         3
        31        30        29        47     9      180.000000        0.068583         4
        32         3         4        33     9        0.000000       -0.431714         1
        32         3         4        33     9      180.000000        6.869070         2
        32         3         4        33     9        0.000000       -0.569257         3
        32         3         4        33     9      180.000000        0.186658         4
        37        13        14        38     9        0.000000       -0.143888         1
        37        13        14        38     9      180.000000       12.194678         2
        37        13        14        38     9        0.000000       -0.759716         3
        37        13        14        38     9      180.000000        0.342548         4
        41        19        20        42     9        0.000000       -0.049751         1
        41        19        20        42     9      180.000000       11.944933         2
        41        19        20        42     9        0.000000       -0.710210         3
        41        19        20        42     9      180.000000        0.205813         4
        46        29        30        48     9        0.000000        0.012957         1
        46        29        30        48     9      180.000000        0.009095         2
        46        29        30        48     9        0.000000        0.258186         3
        46        29        30        48     9      180.000000       -0.019378         4
        46        29        30        49     9        0.000000        0.012957         1
        46        29        30        49     9      180.000000        0.009095         2
        46        29        30        49     9        0.000000        0.258186         3
        46        29        30        49     9      180.000000       -0.019378         4
        47        29        30        48     9        0.000000        0.012957         1
        47        29        30        48     9      180.000000        0.009095         2
        47        29        30        48     9        0.000000        0.258186         3
        47        29        30        48     9      180.000000       -0.019378         4
        47        29        30        49     9        0.000000        0.012957         1
        47        29        30        49     9      180.000000        0.009095         2
        47        29        30        49     9        0.000000        0.258186         3
        47        29        30        49     9      180.000000       -0.019378         4

[ dihedrals ] ; impropers
;       ai        aj        ak        al funct           phase               k        pn
         3         2         4        32     4      180.000000        4.409854         2
         3         4        32         2     4      180.000000        4.409854         2
         3        32         2         4     4      180.000000        4.409854         2
         4         1         3        33     4      180.000000        4.162410         2
         4         3        33         1     4      180.000000        4.162410         2
         4        33         1         3     4      180.000000        4.162410         2
        17        16        18        40     4      180.000000        3.547249         2
        17        18        40        16     4      180.000000        3.547249         2
        17        40        16        18     4      180.000000        3.547249         2
        19        18        20        41     4      180.000000        3.347116         2
        19        20        41        18     4      180.000000        3.347116         2
        19        41        18        20     4      180.000000        3.347116         2

[ pairs ]
;       ai        aj funct
         1         2     1
         1         8     1
         1        10     1
         1        32     1
         1        34     1
         2         7     1
         2         9     1
         2        11     1
         2        33     1
         3         6     1
         3        10     1
         4         5     1
         4         7     1
         5         8     1
         5        13     1
         5        15     1
         5        32     1
         5        34     1
         5        35     1
         6         9     1
         6        11     1
         6        12     1
         6        33     1
         7        10     1
         7        16     1
         7        35     1
         7        36     1
         8        11     1
         8        17     1
         8        21     1
         9        13     1
         9        15     1
         9        16     1
         9        34     1
         9        36     1
        10        12     1
        10        14     1
        10        26     1
        10        37     1
        10        39     1
        11        27     1
        11        31     1
        11        35     1
        11        38     1
        12        18     1
        12        20     1
        12        22     1
        12        34     1
        12        35     1
        12        40     1
        13        26     1
        13        28     1
        13        39     1
        14        15     1
        14        29     1
        14        31     1
        15        28     1
        15        30     1
        15        37     1
        16        19     1
        16        23     1
        16        24     1
        16        25     1
        16        42     1
        17        20     1
        17        22     1
        17        36     1
        17        41     1
        18        21     1
        18        42     1
        19        22     1
        19        40     1
        20        23     1
        20        24     1
        20        25     1
        21        36     1
        21        40     1
        21        41     1
        21        43     1
        21        44     1
        21        45     1
        22        42     1
        23        43     1
        23        44     1
        23        45     1
        24        43     1
        24        44     1
        24        45     1
        26        29     1
        26        38     1
        26        48     1
        26        49     1
        27        30     1
        27        37     1
        27        39     1
        27        46     1
        27        47     1
        28        31     1
        28        38     1
        28        48     1
        28        49     1
        31        39     1
        31        46     1
        31        47     1
        32        33     1
        37        38     1
        41        42     1
        46        48     1
        46        49     1
        47        48     1
        47        49     1
