; ITP file created by ByteFF-ML, 2026-02-21 07:45:09.254136

[ atomtypes ]
;name           bonded.type        at.num        mass        charge   ptype           sigma         epsilon
 c0bf                                   6      0.0000       0.00000       A     3.31696e-01     4.13508e-01
 c1bf                                   6      0.0000       0.00000       A     3.31534e-01     4.11219e-01
 c2bf                                   6      0.0000       0.00000       A     3.31588e-01     4.14304e-01
 c3bf                                   6      0.0000       0.00000       A     3.31172e-01     4.10827e-01
 c4bf                                   6      0.0000       0.00000       A     3.31387e-01     4.12836e-01
 c5bf                                   6      0.0000       0.00000       A     3.31581e-01     4.11588e-01
 n6bf                                   7      0.0000       0.00000       A     3.38246e-01     3.93082e-01
 c7bf                                   6      0.0000       0.00000       A     3.31514e-01     4.13144e-01
 c8bf                                   6      0.0000       0.00000       A     3.31562e-01     4.13392e-01
 n9bf                                   7      0.0000       0.00000       A     3.38456e-01     3.92772e-01
 n10bf                                  7      0.0000       0.00000       A     3.27929e-01     6.45227e-01
 c11bf                                  6      0.0000       0.00000       A     3.31581e-01     4.12886e-01
 c12bf                                  6      0.0000       0.00000       A     3.31706e-01     4.11679e-01
 n13bf                                  7      0.0000       0.00000       A     3.38344e-01     3.92967e-01
 c14bf                                  6      0.0000       0.00000       A     3.31482e-01     4.12140e-01
 c15bf                                  6      0.0000       0.00000       A     3.31194e-01     4.12903e-01
 c16bf                                  6      0.0000       0.00000       A     3.31298e-01     4.15822e-01
 s17bf                                 16      0.0000       0.00000       A     4.05645e-01     2.55727e-01
 o18bf                                  8      0.0000       0.00000       A     3.04857e-01     6.11370e-01
 o19bf                                  8      0.0000       0.00000       A     3.04857e-01     6.11370e-01
 c20bf                                  6      0.0000       0.00000       A     3.39611e-01     4.49156e-01
 c21bf                                  6      0.0000       0.00000       A     3.31497e-01     4.10051e-01
 c22bf                                  6      0.0000       0.00000       A     3.31482e-01     4.13376e-01
 c23bf                                  6      0.0000       0.00000       A     3.31388e-01     4.12852e-01
 c24bf                                  6      0.0000       0.00000       A     3.31637e-01     4.13487e-01
 c25bf                                  6      0.0000       0.00000       A     3.31517e-01     4.12549e-01
 c26bf                                  6      0.0000       0.00000       A     3.31495e-01     4.12381e-01
 o27bf                                  8      0.0000       0.00000       A     3.15642e-01     3.05657e-01
 c28bf                                  6      0.0000       0.00000       A     3.39809e-01     4.50408e-01
 c29bf                                  6      0.0000       0.00000       A     3.39865e-01     4.51281e-01
 c30bf                                  6      0.0000       0.00000       A     3.39805e-01     4.50305e-01
 c31bf                                  6      0.0000       0.00000       A     3.39805e-01     4.50305e-01
 h32bf                                  1      0.0000       0.00000       A     2.62399e-01     6.76733e-02
 h33bf                                  1      0.0000       0.00000       A     2.62381e-01     6.75967e-02
 h34bf                                  1      0.0000       0.00000       A     2.53506e-01     6.72855e-02
 h35bf                                  1      0.0000       0.00000       A     2.53506e-01     6.72855e-02
 h36bf                                  1      0.0000       0.00000       A     1.10952e-01     4.04428e-02
 h37bf                                  1      0.0000       0.00000       A     2.53583e-01     6.80915e-02
 h38bf                                  1      0.0000       0.00000       A     2.53644e-01     6.69998e-02
 h39bf                                  1      0.0000       0.00000       A     2.62744e-01     6.79622e-02
 h40bf                                  1      0.0000       0.00000       A     2.42021e-01     8.71597e-02
 h41bf                                  1      0.0000       0.00000       A     2.42021e-01     8.71597e-02
 h42bf                                  1      0.0000       0.00000       A     2.42021e-01     8.71597e-02
 h43bf                                  1      0.0000       0.00000       A     2.62441e-01     6.73190e-02
 h44bf                                  1      0.0000       0.00000       A     2.62462e-01     6.73206e-02
 h45bf                                  1      0.0000       0.00000       A     2.62598e-01     6.75744e-02
 h46bf                                  1      0.0000       0.00000       A     2.42175e-01     8.72731e-02
 h47bf                                  1      0.0000       0.00000       A     2.42175e-01     8.72731e-02
 h48bf                                  1      0.0000       0.00000       A     2.60035e-01     8.75061e-02
 h49bf                                  1      0.0000       0.00000       A     2.60035e-01     8.75061e-02
 h50bf                                  1      0.0000       0.00000       A     2.60035e-01     8.75061e-02
 h51bf                                  1      0.0000       0.00000       A     2.60035e-01     8.75061e-02
 h52bf                                  1      0.0000       0.00000       A     2.60035e-01     8.75061e-02
 h53bf                                  1      0.0000       0.00000       A     2.60035e-01     8.75061e-02

[ moleculetype ]
;name             nrexcl
 60_adjust_flip        3

[ atoms ]
;       nr            type      resi   res      atom      cgnr      charge          mass ; qtot
         1            c0bf         1   UNL        c0         1    -0.14199       12.0110 ; qtot   -0.142
         2            c1bf         1   UNL        c1         2     0.30813       12.0110 ; qtot    0.166
         3            c2bf         1   UNL        c2         3    -0.13223       12.0110 ; qtot    0.034
         4            c3bf         1   UNL        c3         4     0.03026       12.0110 ; qtot    0.064
         5            c4bf         1   UNL        c4         5     0.25847       12.0110 ; qtot    0.323
         6            c5bf         1   UNL        c5         6     0.21901       12.0110 ; qtot    0.542
         7            n6bf         1   UNL        n6         7    -0.62228       14.0070 ; qtot   -0.081
         8            c7bf         1   UNL        c7         8     0.29317       12.0110 ; qtot    0.213
         9            c8bf         1   UNL        c8         9     0.29405       12.0110 ; qtot    0.507
        10            n9bf         1   UNL        n9        10    -0.62285       14.0070 ; qtot   -0.116
        11           n10bf         1   UNL       n10        11    -0.96404       14.0070 ; qtot   -1.080
        12           c11bf         1   UNL       c11        12     0.35358       12.0110 ; qtot   -0.727
        13           c12bf         1   UNL       c12        13     0.27846       12.0110 ; qtot   -0.448
        14           n13bf         1   UNL       n13        14    -0.60355       14.0070 ; qtot   -1.052
        15           c14bf         1   UNL       c14        15     0.28639       12.0110 ; qtot   -0.765
        16           c15bf         1   UNL       c15        16    -0.03902       12.0110 ; qtot   -0.804
        17           c16bf         1   UNL       c16        17    -0.27733       12.0110 ; qtot   -1.082
        18           s17bf         1   UNL       s17        18     0.99436       32.0670 ; qtot   -0.087
        19           o18bf         1   UNL       o18        19    -0.51400       15.9990 ; qtot   -0.601
        20           o19bf         1   UNL       o19        20    -0.51400       15.9990 ; qtot   -1.115
        21           c20bf         1   UNL       c20        21    -0.29607       12.0110 ; qtot   -1.411
        22           c21bf         1   UNL       c21        22    -0.06953       12.0110 ; qtot   -1.481
        23           c22bf         1   UNL       c22        23    -0.05928       12.0110 ; qtot   -1.540
        24           c23bf         1   UNL       c23        24    -0.14454       12.0110 ; qtot   -1.685
        25           c24bf         1   UNL       c24        25    -0.03183       12.0110 ; qtot   -1.717
        26           c25bf         1   UNL       c25        26    -0.17566       12.0110 ; qtot   -1.892
        27           c26bf         1   UNL       c26        27     0.13273       12.0110 ; qtot   -1.760
        28           o27bf         1   UNL       o27        28    -0.33425       15.9990 ; qtot   -2.094
        29           c28bf         1   UNL       c28        29     0.14861       12.0110 ; qtot   -1.945
        30           c29bf         1   UNL       c29        30    -0.01744       12.0110 ; qtot   -1.963
        31           c30bf         1   UNL       c30        31    -0.07884       12.0110 ; qtot   -2.042
        32           c31bf         1   UNL       c31        32    -0.07884       12.0110 ; qtot   -2.120
        33           h32bf         1   UNL       h32        33     0.14328        1.0080 ; qtot   -1.977
        34           h33bf         1   UNL       h33        34     0.12730        1.0080 ; qtot   -1.850
        35           h34bf         1   UNL       h34        35     0.03158        1.0080 ; qtot   -1.818
        36           h35bf         1   UNL       h35        36     0.03160        1.0080 ; qtot   -1.787
        37           h36bf         1   UNL       h36        37     0.51181        1.0080 ; qtot   -1.275
        38           h37bf         1   UNL       h37        38     0.03589        1.0080 ; qtot   -1.239
        39           h38bf         1   UNL       h38        39     0.03700        1.0080 ; qtot   -1.202
        40           h39bf         1   UNL       h39        40     0.15079        1.0080 ; qtot   -1.051
        41           h40bf         1   UNL       h40        41     0.10467        1.0080 ; qtot   -0.946
        42           h41bf         1   UNL       h41        42     0.10467        1.0080 ; qtot   -0.842
        43           h42bf         1   UNL       h42        43     0.10467        1.0080 ; qtot   -0.737
        44           h43bf         1   UNL       h43        44     0.12454        1.0080 ; qtot   -0.613
        45           h44bf         1   UNL       h44        45     0.13251        1.0080 ; qtot   -0.480
        46           h45bf         1   UNL       h45        46     0.12746        1.0080 ; qtot   -0.353
        47           h46bf         1   UNL       h46        47     0.05962        1.0080 ; qtot   -0.293
        48           h47bf         1   UNL       h47        48     0.05962        1.0080 ; qtot   -0.233
        49           h48bf         1   UNL       h48        49     0.03889        1.0080 ; qtot   -0.194
        50           h49bf         1   UNL       h49        50     0.03889        1.0080 ; qtot   -0.156
        51           h50bf         1   UNL       h50        51     0.03889        1.0080 ; qtot   -0.117
        52           h51bf         1   UNL       h51        52     0.03889        1.0080 ; qtot   -0.078
        53           h52bf         1   UNL       h52        53     0.03889        1.0080 ; qtot   -0.039
        54           h53bf         1   UNL       h53        54     0.03889        1.0080 ; qtot   -0.000

[ bonds ]
;       ai        aj funct               r               k
         1         2     1        0.138622   325678.790723
         1         5     1        0.141521   284459.010498
         1        33     1        0.108434   324306.120020
         2         3     1        0.142346   251378.111328
         2        11     1        0.140593   260287.089453
         3         4     1        0.138637   330443.172607
         3        34     1        0.108420   321509.091504
         4         6     1        0.143464   236949.593457
         4        22     1        0.148306   214026.002930
         5         6     1        0.143386   223579.461084
         5        10     1        0.136675   270922.835840
         6         7     1        0.136378   268382.250977
         7         8     1        0.131881   374103.202393
         8         9     1        0.142216   238192.510107
         8        35     1        0.108820   315940.162988
         9        10     1        0.131846   380187.239941
         9        36     1        0.108836   315483.763770
        11        12     1        0.138908   287909.073975
        11        37     1        0.101485   406811.259766
        12        13     1        0.141520   257222.712939
        12        17     1        0.141314   265581.366357
        13        14     1        0.133244   341315.137256
        13        38     1        0.108642   319937.129199
        14        15     1        0.133977   313656.558057
        15        16     1        0.139506   299656.731641
        15        39     1        0.108702   319547.177539
        16        17     1        0.139402   313134.043262
        16        40     1        0.108446   326160.114160
        17        18     1        0.180715   124483.640259
        18        19     1        0.147464   495020.215039
        18        20     1        0.147464   495020.215039
        18        21     1        0.180772   140787.539600
        21        41     1        0.109028   319230.083252
        21        42     1        0.109028   319230.108789
        21        43     1        0.109028   319230.108789
        22        23     1        0.140730   282159.598096
        22        25     1        0.141054   272192.157861
        23        24     1        0.140003   312559.739209
        23        44     1        0.108482   322300.971729
        24        27     1        0.139177   310312.448047
        24        45     1        0.108515   322849.483301
        25        26     1        0.138762   328184.951562
        25        46     1        0.108546   319762.353223
        26        27     1        0.139955   274571.373730
        26        30     1        0.152157   170397.932837
        27        28     1        0.136691   259432.030420
        28        29     1        0.145523   151872.560352
        29        30     1        0.155423   145884.848779
        29        47     1        0.109336   301660.960596
        29        48     1        0.109336   301660.960596
        30        31     1        0.153963   174987.155688
        30        32     1        0.153963   174987.155688
        31        49     1        0.109434   298549.697949
        31        50     1        0.109434   298549.697949
        31        51     1        0.109434   298549.697949
        32        52     1        0.109434   298549.697949
        32        53     1        0.109434   298549.697949
        32        54     1        0.109434   298549.697949

[ angles ]
;       ai        aj        ak funct           theta             cth
         1         2         3     1      119.340256      642.053685
         1         2        11     1      121.254745      492.361087
         1         5         6     1      120.564919      663.113437
         1         5        10     1      118.281189      431.308051
         2         1         5     1      120.257889      537.525444
         2         1        33     1      121.917053      423.581575
         2         3         4     1      122.427536      713.150593
         2         3        34     1      118.470383      447.200912
         2        11        12     1      126.297546      421.362209
         2        11        37     1      115.426346      433.799388
         3         2        11     1      119.236771      541.059908
         3         4         6     1      118.251930      533.549954
         3         4        22     1      119.247581      472.095443
         4         3        34     1      118.686905      416.055310
         4         6         5     1      118.951096      695.804001
         4         6         7     1      120.406250      430.775092
         4        22        23     1      120.600990      496.705300
         4        22        25     1      120.433411      440.615944
         5         1        33     1      117.843239      439.647833
         5         6         7     1      120.208412      782.715594
         5        10         9     1      116.661819      559.934704
         6         4        22     1      122.714943      443.493370
         6         5        10     1      121.322975      705.924740
         6         7         8     1      117.611557      602.010986
         7         8         9     1      122.256546      732.863901
         7         8        35     1      117.339157      362.478934
         8         9        10     1      122.299545      738.442163
         8         9        36     1      120.145851      429.987368
         9         8        35     1      120.142014      430.475797
        10         9        36     1      117.380966      342.428057
        11        12        13     1      122.505417      578.362793
        11        12        17     1      121.389572      543.101089
        12        11        37     1      114.551170      450.222622
        12        13        14     1      124.232620      770.104221
        12        13        38     1      119.153419      415.430290
        12        17        16     1      120.275772      760.585008
        12        17        18     1      121.663406      744.979280
        13        12        17     1      115.672928      673.644813
        13        14        15     1      118.320412      693.264846
        14        13        38     1      116.504784      340.209553
        14        15        16     1      122.754715      730.070077
        14        15        39     1      116.530663      356.374447
        15        16        17     1      118.684891      679.603961
        15        16        40     1      121.212906      424.346476
        16        15        39     1      120.538696      415.343304
        16        17        18     1      117.699501      539.880923
        17        16        40     1      120.270653      343.599700
        17        18        19     1      107.938034      640.902280
        17        18        20     1      107.938034      640.902280
        17        18        21     1      103.486084      654.077513
        18        21        41     1      107.672241      569.998432
        18        21        42     1      107.672241      569.998432
        18        21        43     1      107.672241      569.998432
        19        18        20     1      120.015259      741.792185
        19        18        21     1      107.539917      732.341348
        20        18        21     1      107.539917      732.341348
        22        23        24     1      121.913086      653.760151
        22        23        44     1      119.126427      409.029988
        22        25        26     1      119.926697      716.232795
        22        25        46     1      119.625610      405.167021
        23        22        25     1      118.772850      650.650497
        23        24        27     1      117.517685      805.697333
        23        24        45     1      121.520386      427.779110
        24        23        44     1      119.112465      405.845957
        24        27        26     1      121.859230      583.776277
        24        27        28     1      124.770790      583.560361
        25        26        27     1      119.665810      715.890342
        25        26        30     1      131.482101      444.053878
        26        25        46     1      120.731834      406.144262
        26        27        28     1      113.302048      371.961788
        26        30        29     1       99.277512      464.807887
        26        30        31     1      111.630081      589.182803
        26        30        32     1      111.630081      589.182803
        27        24        45     1      121.043129      436.092971
        27        26        30     1      108.598068      500.034829
        27        28        29     1      106.937561      573.338112
        28        29        30     1      107.489784      447.730200
        28        29        47     1      107.543762      475.610850
        28        29        48     1      107.543762      475.610850
        29        30        31     1      110.885147      553.832995
        29        30        32     1      110.885147      553.832995
        30        29        47     1      112.456520      415.844565
        30        29        48     1      112.456520      415.844565
        30        31        49     1      110.856979      483.594900
        30        31        50     1      110.856979      483.594900
        30        31        51     1      110.856979      483.594900
        30        32        52     1      110.856979      483.594900
        30        32        53     1      110.856979      483.594900
        30        32        54     1      110.856979      483.594900
        31        30        32     1      110.458519      572.299645
        41        21        42     1      111.147987      344.776290
        41        21        43     1      111.147987      344.776290
        42        21        43     1      111.147987      344.776258
        47        29        48     1      109.282570      342.809582
        49        31        50     1      107.989212      363.153049
        49        31        51     1      107.989212      363.153049
        50        31        51     1      107.989212      363.153049
        52        32        53     1      107.989212      363.153049
        52        32        54     1      107.989212      363.153049
        53        32        54     1      107.989212      363.153049

[ dihedrals ] ; propers for gromacs 4.5 or higher, use funct 9
;       ai        aj        ak        al funct           phase               k        pn
         1         2         3         4     9        0.000000        0.164014         1
         1         2         3         4     9      180.000000       14.153446         2
         1         2         3         4     9        0.000000       -0.842736         3
         1         2         3         4     9      180.000000       -0.231229         4
         1         2         3        34     9        0.000000       -0.064754         1
         1         2         3        34     9      180.000000       11.935983         2
         1         2         3        34     9        0.000000       -0.432953         3
         1         2         3        34     9      180.000000        0.110544         4
         1         2        11        12     9        0.000000       -0.167871         1
         1         2        11        12     9      180.000000        3.526327         2
         1         2        11        12     9        0.000000       -0.356690         3
         1         2        11        12     9      180.000000        0.139573         4
         1         2        11        37     9        0.000000       -0.457731         1
         1         2        11        37     9      180.000000        3.512783         2
         1         2        11        37     9        0.000000       -0.099181         3
         1         2        11        37     9      180.000000        0.073473         4
         1         5         6         4     9        0.000000        0.154577         1
         1         5         6         4     9      180.000000       11.503460         2
         1         5         6         4     9        0.000000       -0.463255         3
         1         5         6         4     9      180.000000       -0.210776         4
         1         5         6         7     9        0.000000        0.340548         1
         1         5         6         7     9      180.000000       11.179590         2
         1         5         6         7     9        0.000000       -0.065208         3
         1         5         6         7     9      180.000000       -0.244500         4
         1         5        10         9     9        0.000000       -0.023334         1
         1         5        10         9     9      180.000000       18.424194         2
         1         5        10         9     9        0.000000        0.154347         3
         1         5        10         9     9      180.000000       -0.275637         4
         2         1         5         6     9        0.000000       -0.535157         1
         2         1         5         6     9      180.000000       13.643161         2
         2         1         5         6     9        0.000000       -0.954560         3
         2         1         5         6     9      180.000000       -0.185752         4
         2         1         5        10     9        0.000000       -0.306896         1
         2         1         5        10     9      180.000000       14.010283         2
         2         1         5        10     9        0.000000       -0.425194         3
         2         1         5        10     9      180.000000       -0.392180         4
         2         3         4         6     9        0.000000       -0.214549         1
         2         3         4         6     9      180.000000       19.298599         2
         2         3         4         6     9        0.000000       -1.517248         3
         2         3         4         6     9      180.000000       -0.306406         4
         2         3         4        22     9        0.000000        0.331727         1
         2         3         4        22     9      180.000000       19.282600         2
         2         3         4        22     9        0.000000        0.033521         3
         2         3         4        22     9      180.000000       -0.800706         4
         2        11        12        13     9        0.000000        1.786047         1
         2        11        12        13     9      180.000000        3.116500         2
         2        11        12        13     9        0.000000       -0.286577         3
         2        11        12        13     9      180.000000        0.145436         4
         2        11        12        17     9        0.000000       -1.816149         1
         2        11        12        17     9      180.000000        4.619862         2
         2        11        12        17     9        0.000000       -0.590150         3
         2        11        12        17     9      180.000000        0.059912         4
         3         2         1         5     9        0.000000       -0.172695         1
         3         2         1         5     9      180.000000       17.269977         2
         3         2         1         5     9        0.000000       -1.150047         3
         3         2         1         5     9      180.000000       -0.415713         4
         3         2         1        33     9        0.000000        0.057194         1
         3         2         1        33     9      180.000000       13.340744         2
         3         2         1        33     9        0.000000       -0.358398         3
         3         2         1        33     9      180.000000        0.131357         4
         3         2        11        12     9        0.000000       -0.235194         1
         3         2        11        12     9      180.000000        3.390104         2
         3         2        11        12     9        0.000000        0.020231         3
         3         2        11        12     9      180.000000        0.120802         4
         3         2        11        37     9        0.000000       -0.401552         1
         3         2        11        37     9      180.000000        3.316239         2
         3         2        11        37     9        0.000000        0.053715         3
         3         2        11        37     9      180.000000        0.093663         4
         3         4         6         5     9        0.000000       -0.416057         1
         3         4         6         5     9      180.000000       10.466200         2
         3         4         6         5     9        0.000000       -0.865984         3
         3         4         6         5     9      180.000000        0.038466         4
         3         4         6         7     9        0.000000        0.043915         1
         3         4         6         7     9      180.000000        9.534598         2
         3         4         6         7     9        0.000000       -0.296599         3
         3         4         6         7     9      180.000000       -0.083624         4
         3         4        22        23     9        0.000000       -0.409877         1
         3         4        22        23     9      180.000000        4.510713         2
         3         4        22        23     9        0.000000        0.093574         3
         3         4        22        23     9      180.000000        0.570741         4
         3         4        22        25     9        0.000000       -0.470411         1
         3         4        22        25     9      180.000000        4.599851         2
         3         4        22        25     9        0.000000        0.064859         3
         3         4        22        25     9      180.000000        0.589003         4
         4         3         2        11     9        0.000000        0.203057         1
         4         3         2        11     9      180.000000       15.557335         2
         4         3         2        11     9        0.000000        0.098687         3
         4         3         2        11     9      180.000000       -0.440754         4
         4         6         5        10     9        0.000000       -0.307974         1
         4         6         5        10     9      180.000000       10.141854         2
         4         6         5        10     9        0.000000        0.086718         3
         4         6         5        10     9      180.000000       -0.275404         4
         4         6         7         8     9        0.000000        0.589681         1
         4         6         7         8     9      180.000000       16.385626         2
         4         6         7         8     9        0.000000        0.377514         3
         4         6         7         8     9      180.000000       -0.367370         4
         4        22        23        24     9        0.000000        0.209622         1
         4        22        23        24     9      180.000000       15.167758         2
         4        22        23        24     9        0.000000       -0.156751         3
         4        22        23        24     9      180.000000       -0.158704         4
         4        22        23        44     9        0.000000       -0.012727         1
         4        22        23        44     9      180.000000       12.878384         2
         4        22        23        44     9        0.000000       -0.195654         3
         4        22        23        44     9      180.000000        0.191335         4
         4        22        25        26     9        0.000000        0.047554         1
         4        22        25        26     9      180.000000       15.529906         2
         4        22        25        26     9        0.000000       -0.059656         3
         4        22        25        26     9      180.000000       -0.324409         4
         4        22        25        46     9        0.000000       -0.071493         1
         4        22        25        46     9      180.000000       12.598005         2
         4        22        25        46     9        0.000000       -0.136473         3
         4        22        25        46     9      180.000000        0.133716         4
         5         1         2        11     9        0.000000        0.246511         1
         5         1         2        11     9      180.000000       19.522853         2
         5         1         2        11     9        0.000000        0.055608         3
         5         1         2        11     9      180.000000       -0.772829         4
         5         6         4        22     9        0.000000        0.112757         1
         5         6         4        22     9      180.000000       12.528587         2
         5         6         4        22     9        0.000000       -0.036330         3
         5         6         4        22     9      180.000000       -0.427173         4
         5         6         7         8     9        0.000000        0.188120         1
         5         6         7         8     9      180.000000       16.793790         2
         5         6         7         8     9        0.000000       -0.050993         3
         5         6         7         8     9      180.000000       -0.239062         4
         5        10         9         8     9        0.000000       -0.161990         1
         5        10         9         8     9      180.000000       25.805864         2
         5        10         9         8     9        0.000000       -0.989158         3
         5        10         9         8     9      180.000000       -0.201960         4
         5        10         9        36     9        0.000000        0.808513         1
         5        10         9        36     9      180.000000       23.535886         2
         5        10         9        36     9        0.000000        0.064004         3
         5        10         9        36     9      180.000000       -0.475717         4
         6         4         3        34     9        0.000000        0.204121         1
         6         4         3        34     9      180.000000       15.597577         2
         6         4         3        34     9        0.000000       -0.331565         3
         6         4         3        34     9      180.000000        0.183438         4
         6         4        22        23     9        0.000000        0.091675         1
         6         4        22        23     9      180.000000        4.041773         2
         6         4        22        23     9        0.000000       -0.210937         3
         6         4        22        23     9      180.000000        0.722077         4
         6         4        22        25     9        0.000000        0.076822         1
         6         4        22        25     9      180.000000        4.154419         2
         6         4        22        25     9        0.000000       -0.095255         3
         6         4        22        25     9      180.000000        0.743895         4
         6         5         1        33     9        0.000000       -0.170721         1
         6         5         1        33     9      180.000000       10.545502         2
         6         5         1        33     9        0.000000       -0.262492         3
         6         5         1        33     9      180.000000       -0.003795         4
         6         5        10         9     9        0.000000       -0.107916         1
         6         5        10         9     9      180.000000       16.440884         2
         6         5        10         9     9        0.000000        0.043441         3
         6         5        10         9     9      180.000000       -0.231039         4
         6         7         8         9     9        0.000000        0.103245         1
         6         7         8         9     9      180.000000       25.050131         2
         6         7         8         9     9        0.000000       -0.948796         3
         6         7         8         9     9      180.000000       -0.159021         4
         6         7         8        35     9        0.000000        0.727425         1
         6         7         8        35     9      180.000000       22.903268         2
         6         7         8        35     9        0.000000        0.106514         3
         6         7         8        35     9      180.000000       -0.552430         4
         7         6         4        22     9        0.000000       -0.460043         1
         7         6         4        22     9      180.000000       12.377097         2
         7         6         4        22     9        0.000000       -0.148217         3
         7         6         4        22     9      180.000000       -0.462077         4
         7         6         5        10     9        0.000000        0.159900         1
         7         6         5        10     9      180.000000       11.086216         2
         7         6         5        10     9        0.000000        0.160518         3
         7         6         5        10     9      180.000000       -0.397158         4
         7         8         9        10     9        0.000000       -0.713203         1
         7         8         9        10     9      180.000000       11.742392         2
         7         8         9        10     9        0.000000       -0.552181         3
         7         8         9        10     9      180.000000       -0.521535         4
         7         8         9        36     9        0.000000       -0.026031         1
         7         8         9        36     9      180.000000        9.508286         2
         7         8         9        36     9        0.000000       -0.255749         3
         7         8         9        36     9      180.000000       -0.134502         4
        10         5         1        33     9        0.000000        0.016940         1
        10         5         1        33     9      180.000000       11.980067         2
        10         5         1        33     9        0.000000       -0.349905         3
        10         5         1        33     9      180.000000        0.012863         4
        10         9         8        35     9        0.000000       -0.199022         1
        10         9         8        35     9      180.000000        9.267615         2
        10         9         8        35     9        0.000000       -0.318099         3
        10         9         8        35     9      180.000000       -0.090079         4
        11         2         1        33     9        0.000000       -0.006423         1
        11         2         1        33     9      180.000000       15.238159         2
        11         2         1        33     9        0.000000       -0.072526         3
        11         2         1        33     9      180.000000        0.161232         4
        11         2         3        34     9        0.000000       -0.058685         1
        11         2         3        34     9      180.000000       14.053045         2
        11         2         3        34     9        0.000000       -0.041461         3
        11         2         3        34     9      180.000000        0.138032         4
        11        12        13        14     9        0.000000        0.186749         1
        11        12        13        14     9      180.000000       16.683917         2
        11        12        13        14     9        0.000000        0.179116         3
        11        12        13        14     9      180.000000       -0.684725         4
        11        12        13        38     9        0.000000       -0.299543         1
        11        12        13        38     9      180.000000       14.371221         2
        11        12        13        38     9        0.000000       -0.253273         3
        11        12        13        38     9      180.000000        0.145399         4
        11        12        17        16     9        0.000000        0.142199         1
        11        12        17        16     9      180.000000       15.897986         2
        11        12        17        16     9        0.000000        0.030266         3
        11        12        17        16     9      180.000000       -0.460852         4
        11        12        17        18     9        0.000000       -0.927876         1
        11        12        17        18     9      180.000000       13.516794         2
        11        12        17        18     9        0.000000       -0.073923         3
        11        12        17        18     9      180.000000       -0.622706         4
        12        13        14        15     9        0.000000        0.319722         1
        12        13        14        15     9      180.000000       22.949103         2
        12        13        14        15     9        0.000000       -0.741217         3
        12        13        14        15     9      180.000000        0.175923         4
        12        17        16        15     9        0.000000       -0.049559         1
        12        17        16        15     9      180.000000       18.886873         2
        12        17        16        15     9        0.000000       -2.021566         3
        12        17        16        15     9      180.000000       -0.405198         4
        12        17        16        40     9        0.000000        0.229106         1
        12        17        16        40     9      180.000000       14.976780         2
        12        17        16        40     9        0.000000       -0.507225         3
        12        17        16        40     9      180.000000        0.085320         4
        12        17        18        19     9        0.000000       -1.334284         1
        12        17        18        19     9      180.000000        0.814377         2
        12        17        18        19     9        0.000000        0.785313         3
        12        17        18        19     9      180.000000       -0.187784         4
        12        17        18        20     9        0.000000       -1.334284         1
        12        17        18        20     9      180.000000        0.814377         2
        12        17        18        20     9        0.000000        0.785313         3
        12        17        18        20     9      180.000000       -0.187784         4
        12        17        18        21     9        0.000000        3.729086         1
        12        17        18        21     9      180.000000       -2.195929         2
        12        17        18        21     9        0.000000        0.799429         3
        12        17        18        21     9      180.000000        0.054293         4
        13        12        11        37     9        0.000000       -1.272588         1
        13        12        11        37     9      180.000000        2.989698         2
        13        12        11        37     9        0.000000       -0.423806         3
        13        12        11        37     9      180.000000        0.040258         4
        13        12        17        16     9        0.000000       -0.037262         1
        13        12        17        16     9      180.000000       14.380144         2
        13        12        17        16     9        0.000000       -0.900345         3
        13        12        17        16     9      180.000000       -0.221952         4
        13        12        17        18     9        0.000000        0.366401         1
        13        12        17        18     9      180.000000       11.025740         2
        13        12        17        18     9        0.000000        0.150288         3
        13        12        17        18     9      180.000000       -0.363523         4
        13        14        15        16     9        0.000000        0.177563         1
        13        14        15        16     9      180.000000       22.523862         2
        13        14        15        16     9        0.000000       -0.901752         3
        13        14        15        16     9      180.000000       -0.193725         4
        13        14        15        39     9        0.000000        0.988693         1
        13        14        15        39     9      180.000000       20.417146         2
        13        14        15        39     9        0.000000        0.253449         3
        13        14        15        39     9      180.000000       -0.430136         4
        14        13        12        17     9        0.000000       -0.510166         1
        14        13        12        17     9      180.000000       14.375530         2
        14        13        12        17     9        0.000000       -0.595358         3
        14        13        12        17     9      180.000000       -0.489937         4
        14        15        16        17     9        0.000000       -0.220826         1
        14        15        16        17     9      180.000000       18.549630         2
        14        15        16        17     9        0.000000       -1.222990         3
        14        15        16        17     9      180.000000       -0.581963         4
        14        15        16        40     9        0.000000        0.066372         1
        14        15        16        40     9      180.000000       14.573594         2
        14        15        16        40     9        0.000000       -0.318036         3
        14        15        16        40     9      180.000000       -0.017204         4
        15        14        13        38     9        0.000000        1.115355         1
        15        14        13        38     9      180.000000       20.962222         2
        15        14        13        38     9        0.000000        0.247396         3
        15        14        13        38     9      180.000000       -0.016300         4
        15        16        17        18     9        0.000000        0.192524         1
        15        16        17        18     9      180.000000       13.995355         2
        15        16        17        18     9        0.000000        0.189775         3
        15        16        17        18     9      180.000000       -0.443899         4
        16        17        18        19     9        0.000000       -0.090527         1
        16        17        18        19     9      180.000000        0.655865         2
        16        17        18        19     9        0.000000       -0.321290         3
        16        17        18        19     9      180.000000       -0.045698         4
        16        17        18        20     9        0.000000       -0.090527         1
        16        17        18        20     9      180.000000        0.655865         2
        16        17        18        20     9        0.000000       -0.321290         3
        16        17        18        20     9      180.000000       -0.045698         4
        16        17        18        21     9        0.000000        0.119865         1
        16        17        18        21     9      180.000000       -0.559451         2
        16        17        18        21     9        0.000000       -0.551232         3
        16        17        18        21     9      180.000000        0.255504         4
        17        12        11        37     9        0.000000        2.440458         1
        17        12        11        37     9      180.000000        3.205589         2
        17        12        11        37     9        0.000000       -0.727467         3
        17        12        11        37     9      180.000000        0.027702         4
        17        12        13        38     9        0.000000        0.058995         1
        17        12        13        38     9      180.000000       12.296400         2
        17        12        13        38     9        0.000000       -0.329284         3
        17        12        13        38     9      180.000000        0.069067         4
        17        16        15        39     9        0.000000        0.008007         1
        17        16        15        39     9      180.000000       14.871302         2
        17        16        15        39     9        0.000000       -0.365301         3
        17        16        15        39     9      180.000000       -0.122426         4
        17        18        21        41     9        0.000000        0.134671         1
        17        18        21        41     9      180.000000       -0.180389         2
        17        18        21        41     9        0.000000        0.326690         3
        17        18        21        41     9      180.000000       -0.016353         4
        17        18        21        42     9        0.000000        0.134670         1
        17        18        21        42     9      180.000000       -0.180389         2
        17        18        21        42     9        0.000000        0.326690         3
        17        18        21        42     9      180.000000       -0.016353         4
        17        18        21        43     9        0.000000        0.134670         1
        17        18        21        43     9      180.000000       -0.180389         2
        17        18        21        43     9        0.000000        0.326690         3
        17        18        21        43     9      180.000000       -0.016353         4
        18        17        16        40     9        0.000000       -0.032266         1
        18        17        16        40     9      180.000000       12.082714         2
        18        17        16        40     9        0.000000       -0.269976         3
        18        17        16        40     9      180.000000        0.014566         4
        19        18        21        41     9        0.000000       -0.020338         1
        19        18        21        41     9      180.000000       -0.042566         2
        19        18        21        41     9        0.000000        0.357266         3
        19        18        21        41     9      180.000000        0.004050         4
        19        18        21        42     9        0.000000       -0.020339         1
        19        18        21        42     9      180.000000       -0.042567         2
        19        18        21        42     9        0.000000        0.357266         3
        19        18        21        42     9      180.000000        0.004050         4
        19        18        21        43     9        0.000000       -0.020339         1
        19        18        21        43     9      180.000000       -0.042567         2
        19        18        21        43     9        0.000000        0.357266         3
        19        18        21        43     9      180.000000        0.004050         4
        20        18        21        41     9        0.000000       -0.020338         1
        20        18        21        41     9      180.000000       -0.042566         2
        20        18        21        41     9        0.000000        0.357266         3
        20        18        21        41     9      180.000000        0.004050         4
        20        18        21        42     9        0.000000       -0.020339         1
        20        18        21        42     9      180.000000       -0.042567         2
        20        18        21        42     9        0.000000        0.357266         3
        20        18        21        42     9      180.000000        0.004050         4
        20        18        21        43     9        0.000000       -0.020339         1
        20        18        21        43     9      180.000000       -0.042567         2
        20        18        21        43     9        0.000000        0.357266         3
        20        18        21        43     9      180.000000        0.004050         4
        22         4         3        34     9        0.000000       -0.021753         1
        22         4         3        34     9      180.000000       14.942582         2
        22         4         3        34     9        0.000000       -0.166523         3
        22         4         3        34     9      180.000000        0.097245         4
        22        23        24        27     9        0.000000       -0.146706         1
        22        23        24        27     9      180.000000       19.287227         2
        22        23        24        27     9        0.000000       -1.704045         3
        22        23        24        27     9      180.000000       -0.514440         4
        22        23        24        45     9        0.000000        0.008521         1
        22        23        24        45     9      180.000000       13.924348         2
        22        23        24        45     9        0.000000       -0.421009         3
        22        23        24        45     9      180.000000        0.140679         4
        22        25        26        27     9        0.000000       -0.102908         1
        22        25        26        27     9      180.000000       20.803541         2
        22        25        26        27     9        0.000000       -2.236068         3
        22        25        26        27     9      180.000000       -0.521888         4
        22        25        26        30     9        0.000000        0.137651         1
        22        25        26        30     9      180.000000       14.166882         2
        22        25        26        30     9        0.000000       -0.145585         3
        22        25        26        30     9      180.000000       -0.217658         4
        23        22        25        26     9        0.000000       -0.138507         1
        23        22        25        26     9      180.000000       18.390683         2
        23        22        25        26     9        0.000000       -1.608838         3
        23        22        25        26     9      180.000000       -0.280944         4
        23        22        25        46     9        0.000000        0.099415         1
        23        22        25        46     9      180.000000       13.538147         2
        23        22        25        46     9        0.000000       -0.641950         3
        23        22        25        46     9      180.000000        0.135553         4
        23        24        27        26     9        0.000000       -0.132211         1
        23        24        27        26     9      180.000000       17.774522         2
        23        24        27        26     9        0.000000       -1.848020         3
        23        24        27        26     9      180.000000       -0.256607         4
        23        24        27        28     9        0.000000        0.594584         1
        23        24        27        28     9      180.000000       18.582509         2
        23        24        27        28     9        0.000000        0.347953         3
        23        24        27        28     9      180.000000       -0.404429         4
        24        23        22        25     9        0.000000       -0.102928         1
        24        23        22        25     9      180.000000       18.588857         2
        24        23        22        25     9        0.000000       -1.443129         3
        24        23        22        25     9      180.000000       -0.351642         4
        24        27        26        25     9        0.000000       -0.081474         1
        24        27        26        25     9      180.000000       12.327161         2
        24        27        26        25     9        0.000000       -1.299459         3
        24        27        26        25     9      180.000000       -0.071054         4
        24        27        26        30     9        0.000000       -0.013727         1
        24        27        26        30     9      180.000000       11.382832         2
        24        27        26        30     9        0.000000       -1.370427         3
        24        27        26        30     9      180.000000       -0.047498         4
        24        27        28        29     9        0.000000        0.738980         1
        24        27        28        29     9      180.000000        6.894120         2
        24        27        28        29     9        0.000000        0.918466         3
        24        27        28        29     9      180.000000        0.004721         4
        25        22        23        44     9        0.000000        0.025613         1
        25        22        23        44     9      180.000000       14.082720         2
        25        22        23        44     9        0.000000       -0.654451         3
        25        22        23        44     9      180.000000        0.138801         4
        25        26        27        28     9        0.000000        0.113520         1
        25        26        27        28     9      180.000000       13.144185         2
        25        26        27        28     9        0.000000       -1.737824         3
        25        26        27        28     9      180.000000        0.055827         4
        25        26        30        29     9        0.000000        0.582433         1
        25        26        30        29     9      180.000000        2.175535         2
        25        26        30        29     9        0.000000       -0.273960         3
        25        26        30        29     9      180.000000        0.989496         4
        25        26        30        31     9        0.000000       -0.182237         1
        25        26        30        31     9      180.000000        1.813760         2
        25        26        30        31     9        0.000000       -0.320349         3
        25        26        30        31     9      180.000000        0.900115         4
        25        26        30        32     9        0.000000       -0.182237         1
        25        26        30        32     9      180.000000        1.813760         2
        25        26        30        32     9        0.000000       -0.320349         3
        25        26        30        32     9      180.000000        0.900115         4
        26        27        24        45     9        0.000000        0.197971         1
        26        27        24        45     9      180.000000       12.307130         2
        26        27        24        45     9        0.000000       -0.529973         3
        26        27        24        45     9      180.000000       -0.044495         4
        26        27        28        29     9        0.000000       -0.457132         1
        26        27        28        29     9      180.000000       17.236944         2
        26        27        28        29     9        0.000000       -2.268275         3
        26        27        28        29     9      180.000000       -1.597066         4
        26        30        29        28     9        0.000000       -0.884046         1
        26        30        29        28     9      180.000000        4.264539         2
        26        30        29        28     9        0.000000        0.018414         3
        26        30        29        28     9      180.000000       -2.157862         4
        26        30        29        47     9        0.000000        0.030904         1
        26        30        29        47     9      180.000000       -0.164982         2
        26        30        29        47     9        0.000000        0.194059         3
        26        30        29        47     9      180.000000        0.068818         4
        26        30        29        48     9        0.000000        0.030904         1
        26        30        29        48     9      180.000000       -0.164982         2
        26        30        29        48     9        0.000000        0.194059         3
        26        30        29        48     9      180.000000        0.068818         4
        26        30        31        49     9        0.000000        0.044811         1
        26        30        31        49     9      180.000000       -0.018772         2
        26        30        31        49     9        0.000000        0.591033         3
        26        30        31        49     9      180.000000       -0.013135         4
        26        30        31        50     9        0.000000        0.044811         1
        26        30        31        50     9      180.000000       -0.018772         2
        26        30        31        50     9        0.000000        0.591033         3
        26        30        31        50     9      180.000000       -0.013135         4
        26        30        31        51     9        0.000000        0.044811         1
        26        30        31        51     9      180.000000       -0.018772         2
        26        30        31        51     9        0.000000        0.591033         3
        26        30        31        51     9      180.000000       -0.013135         4
        26        30        32        52     9        0.000000        0.044811         1
        26        30        32        52     9      180.000000       -0.018772         2
        26        30        32        52     9        0.000000        0.591033         3
        26        30        32        52     9      180.000000       -0.013135         4
        26        30        32        53     9        0.000000        0.044811         1
        26        30        32        53     9      180.000000       -0.018772         2
        26        30        32        53     9        0.000000        0.591033         3
        26        30        32        53     9      180.000000       -0.013135         4
        26        30        32        54     9        0.000000        0.044811         1
        26        30        32        54     9      180.000000       -0.018772         2
        26        30        32        54     9        0.000000        0.591033         3
        26        30        32        54     9      180.000000       -0.013135         4
        27        24        23        44     9        0.000000        0.138414         1
        27        24        23        44     9      180.000000       15.559702         2
        27        24        23        44     9        0.000000       -0.495370         3
        27        24        23        44     9      180.000000        0.009074         4
        27        26        25        46     9        0.000000        0.346318         1
        27        26        25        46     9      180.000000       15.621174         2
        27        26        25        46     9        0.000000       -0.520358         3
        27        26        25        46     9      180.000000       -0.135240         4
        27        26        30        29     9        0.000000       -0.105969         1
        27        26        30        29     9      180.000000       17.474928         2
        27        26        30        29     9        0.000000       -2.363352         3
        27        26        30        29     9      180.000000       -1.344141         4
        27        26        30        31     9        0.000000       -0.641043         1
        27        26        30        31     9      180.000000        2.855484         2
        27        26        30        31     9        0.000000        0.351570         3
        27        26        30        31     9      180.000000        1.885417         4
        27        26        30        32     9        0.000000       -0.641043         1
        27        26        30        32     9      180.000000        2.855484         2
        27        26        30        32     9        0.000000        0.351570         3
        27        26        30        32     9      180.000000        1.885417         4
        27        28        29        30     9        0.000000       -0.649719         1
        27        28        29        30     9      180.000000        4.940901         2
        27        28        29        30     9        0.000000       -0.180118         3
        27        28        29        30     9      180.000000       -2.232279         4
        27        28        29        47     9        0.000000       -0.031133         1
        27        28        29        47     9      180.000000       -0.262543         2
        27        28        29        47     9        0.000000        0.011509         3
        27        28        29        47     9      180.000000        0.209997         4
        27        28        29        48     9        0.000000       -0.031133         1
        27        28        29        48     9      180.000000       -0.262543         2
        27        28        29        48     9        0.000000        0.011509         3
        27        28        29        48     9      180.000000        0.209997         4
        28        27        24        45     9        0.000000        0.128340         1
        28        27        24        45     9      180.000000       12.730792         2
        28        27        24        45     9        0.000000       -0.117679         3
        28        27        24        45     9      180.000000        0.176390         4
        28        27        26        30     9        0.000000        0.035189         1
        28        27        26        30     9      180.000000       20.027005         2
        28        27        26        30     9        0.000000       -3.987902         3
        28        27        26        30     9      180.000000       -0.699398         4
        28        29        30        31     9        0.000000        0.088588         1
        28        29        30        31     9      180.000000        0.376881         2
        28        29        30        31     9        0.000000        0.668693         3
        28        29        30        31     9      180.000000        0.129148         4
        28        29        30        32     9        0.000000        0.088588         1
        28        29        30        32     9      180.000000        0.376881         2
        28        29        30        32     9        0.000000        0.668693         3
        28        29        30        32     9      180.000000        0.129148         4
        29        30        31        49     9        0.000000       -0.019685         1
        29        30        31        49     9      180.000000        0.033084         2
        29        30        31        49     9        0.000000        0.445838         3
        29        30        31        49     9      180.000000        0.003605         4
        29        30        31        50     9        0.000000       -0.019685         1
        29        30        31        50     9      180.000000        0.033084         2
        29        30        31        50     9        0.000000        0.445838         3
        29        30        31        50     9      180.000000        0.003605         4
        29        30        31        51     9        0.000000       -0.019685         1
        29        30        31        51     9      180.000000        0.033084         2
        29        30        31        51     9        0.000000        0.445838         3
        29        30        31        51     9      180.000000        0.003605         4
        29        30        32        52     9        0.000000       -0.019685         1
        29        30        32        52     9      180.000000        0.033084         2
        29        30        32        52     9        0.000000        0.445838         3
        29        30        32        52     9      180.000000        0.003605         4
        29        30        32        53     9        0.000000       -0.019685         1
        29        30        32        53     9      180.000000        0.033084         2
        29        30        32        53     9        0.000000        0.445838         3
        29        30        32        53     9      180.000000        0.003605         4
        29        30        32        54     9        0.000000       -0.019685         1
        29        30        32        54     9      180.000000        0.033084         2
        29        30        32        54     9        0.000000        0.445838         3
        29        30        32        54     9      180.000000        0.003605         4
        30        26        25        46     9        0.000000        0.045198         1
        30        26        25        46     9      180.000000       11.285513         2
        30        26        25        46     9        0.000000       -0.168917         3
        30        26        25        46     9      180.000000        0.109149         4
        31        30        29        47     9        0.000000       -0.021047         1
        31        30        29        47     9      180.000000       -0.052247         2
        31        30        29        47     9        0.000000        0.619721         3
        31        30        29        47     9      180.000000        0.015581         4
        31        30        29        48     9        0.000000       -0.021047         1
        31        30        29        48     9      180.000000       -0.052247         2
        31        30        29        48     9        0.000000        0.619721         3
        31        30        29        48     9      180.000000        0.015581         4
        31        30        32        52     9        0.000000       -0.084330         1
        31        30        32        52     9      180.000000        0.033169         2
        31        30        32        52     9        0.000000        0.622591         3
        31        30        32        52     9      180.000000        0.063744         4
        31        30        32        53     9        0.000000       -0.084330         1
        31        30        32        53     9      180.000000        0.033169         2
        31        30        32        53     9        0.000000        0.622591         3
        31        30        32        53     9      180.000000        0.063744         4
        31        30        32        54     9        0.000000       -0.084330         1
        31        30        32        54     9      180.000000        0.033169         2
        31        30        32        54     9        0.000000        0.622591         3
        31        30        32        54     9      180.000000        0.063744         4
        32        30        29        47     9        0.000000       -0.021047         1
        32        30        29        47     9      180.000000       -0.052247         2
        32        30        29        47     9        0.000000        0.619721         3
        32        30        29        47     9      180.000000        0.015581         4
        32        30        29        48     9        0.000000       -0.021047         1
        32        30        29        48     9      180.000000       -0.052247         2
        32        30        29        48     9        0.000000        0.619721         3
        32        30        29        48     9      180.000000        0.015581         4
        32        30        31        49     9        0.000000       -0.084330         1
        32        30        31        49     9      180.000000        0.033169         2
        32        30        31        49     9        0.000000        0.622591         3
        32        30        31        49     9      180.000000        0.063744         4
        32        30        31        50     9        0.000000       -0.084330         1
        32        30        31        50     9      180.000000        0.033169         2
        32        30        31        50     9        0.000000        0.622591         3
        32        30        31        50     9      180.000000        0.063744         4
        32        30        31        51     9        0.000000       -0.084330         1
        32        30        31        51     9      180.000000        0.033169         2
        32        30        31        51     9        0.000000        0.622591         3
        32        30        31        51     9      180.000000        0.063744         4
        35         8         9        36     9        0.000000       -0.431715         1
        35         8         9        36     9      180.000000        6.869070         2
        35         8         9        36     9        0.000000       -0.569257         3
        35         8         9        36     9      180.000000        0.186659         4
        39        15        16        40     9        0.000000       -0.049751         1
        39        15        16        40     9      180.000000       11.944933         2
        39        15        16        40     9        0.000000       -0.710210         3
        39        15        16        40     9      180.000000        0.205813         4
        44        23        24        45     9        0.000000       -0.152156         1
        44        23        24        45     9      180.000000       12.119898         2
        44        23        24        45     9        0.000000       -0.739401         3
        44        23        24        45     9      180.000000        0.311597         4

[ dihedrals ] ; impropers
;       ai        aj        ak        al funct           phase               k        pn
         4         3         6        22     4      180.000000        0.280235         2
         4         6        22         3     4      180.000000        0.280235         2
         4        22         3         6     4      180.000000        0.280235         2
         8         7         9        35     4      180.000000        4.409855         2
         8         9        35         7     4      180.000000        4.409855         2
         8        35         7         9     4      180.000000        4.409855         2
         9         8        10        36     4      180.000000        4.162411         2
         9        10        36         8     4      180.000000        4.162411         2
         9        36         8        10     4      180.000000        4.162411         2
        13        12        14        38     4      180.000000        3.547249         2
        13        14        38        12     4      180.000000        3.547249         2
        13        38        12        14     4      180.000000        3.547249         2
        15        14        16        39     4      180.000000        3.347115         2
        15        16        39        14     4      180.000000        3.347115         2
        15        39        14        16     4      180.000000        3.347115         2
        25        22        26        46     4      180.000000        0.069907         2
        25        26        46        22     4      180.000000        0.069907         2
        25        46        22        26     4      180.000000        0.069907         2

[ pairs ]
;       ai        aj funct
         1         4     1
         1         7     1
         1         9     1
         1        12     1
         1        34     1
         1        37     1
         2         6     1
         2        10     1
         2        13     1
         2        17     1
         2        22     1
         3         5     1
         3         7     1
         3        12     1
         3        23     1
         3        25     1
         3        33     1
         3        37     1
         4         8     1
         4        10     1
         4        11     1
         4        24     1
         4        26     1
         4        44     1
         4        46     1
         5         8     1
         5        11     1
         5        22     1
         5        36     1
         6         9     1
         6        23     1
         6        25     1
         6        33     1
         6        34     1
         6        35     1
         7        10     1
         7        22     1
         7        36     1
        10        33     1
        10        35     1
        11        14     1
        11        16     1
        11        18     1
        11        33     1
        11        34     1
        11        38     1
        12        15     1
        12        19     1
        12        20     1
        12        21     1
        12        40     1
        13        16     1
        13        18     1
        13        37     1
        13        39     1
        14        17     1
        14        40     1
        15        18     1
        15        38     1
        16        19     1
        16        20     1
        16        21     1
        17        37     1
        17        38     1
        17        39     1
        17        41     1
        17        42     1
        17        43     1
        18        40     1
        19        41     1
        19        42     1
        19        43     1
        20        41     1
        20        42     1
        20        43     1
        22        27     1
        22        30     1
        22        34     1
        22        45     1
        23        26     1
        23        28     1
        23        46     1
        24        25     1
        24        29     1
        24        30     1
        25        28     1
        25        29     1
        25        31     1
        25        32     1
        25        44     1
        26        45     1
        26        47     1
        26        48     1
        26        49     1
        26        50     1
        26        51     1
        26        52     1
        26        53     1
        26        54     1
        27        31     1
        27        32     1
        27        44     1
        27        46     1
        27        47     1
        27        48     1
        28        31     1
        28        32     1
        28        45     1
        29        49     1
        29        50     1
        29        51     1
        29        52     1
        29        53     1
        29        54     1
        30        46     1
        31        47     1
        31        48     1
        31        52     1
        31        53     1
        31        54     1
        32        47     1
        32        48     1
        32        49     1
        32        50     1
        32        51     1
        35        36     1
        39        40     1
        44        45     1
