; ITP file created by ByteFF-ML, 2026-02-21 07:42:20.750241

[ atomtypes ]
;name           bonded.type        at.num        mass        charge   ptype           sigma         epsilon
 c0bf                                   6      0.0000       0.00000       A     3.31696e-01     4.13508e-01
 c1bf                                   6      0.0000       0.00000       A     3.31534e-01     4.11219e-01
 c2bf                                   6      0.0000       0.00000       A     3.31588e-01     4.14304e-01
 c3bf                                   6      0.0000       0.00000       A     3.31138e-01     4.10661e-01
 c4bf                                   6      0.0000       0.00000       A     3.31387e-01     4.12836e-01
 c5bf                                   6      0.0000       0.00000       A     3.31581e-01     4.11588e-01
 n6bf                                   7      0.0000       0.00000       A     3.38246e-01     3.93082e-01
 c7bf                                   6      0.0000       0.00000       A     3.31514e-01     4.13144e-01
 c8bf                                   6      0.0000       0.00000       A     3.31562e-01     4.13392e-01
 n9bf                                   7      0.0000       0.00000       A     3.38456e-01     3.92772e-01
 c10bf                                  6      0.0000       0.00000       A     3.31294e-01     4.11248e-01
 n11bf                                  7      0.0000       0.00000       A     3.27929e-01     6.45227e-01
 c12bf                                  6      0.0000       0.00000       A     3.31669e-01     4.15166e-01
 c13bf                                  6      0.0000       0.00000       A     3.31441e-01     4.12601e-01
 c14bf                                  6      0.0000       0.00000       A     3.31311e-01     4.13513e-01
 c15bf                                  6      0.0000       0.00000       A     3.31669e-01     4.09642e-01
 c16bf                                  6      0.0000       0.00000       A     3.31529e-01     4.12509e-01
 n17bf                                  7      0.0000       0.00000       A     3.38523e-01     3.92812e-01
 o18bf                                  8      0.0000       0.00000       A     3.15970e-01     3.07946e-01
 n19bf                                  7      0.0000       0.00000       A     3.38534e-01     3.91891e-01
 c20bf                                  6      0.0000       0.00000       A     3.31581e-01     4.12886e-01
 c21bf                                  6      0.0000       0.00000       A     3.31298e-01     4.15822e-01
 c22bf                                  6      0.0000       0.00000       A     3.31194e-01     4.12903e-01
 c23bf                                  6      0.0000       0.00000       A     3.31482e-01     4.12140e-01
 n24bf                                  7      0.0000       0.00000       A     3.38344e-01     3.92967e-01
 c25bf                                  6      0.0000       0.00000       A     3.31706e-01     4.11679e-01
 s26bf                                 16      0.0000       0.00000       A     4.05645e-01     2.55727e-01
 c27bf                                  6      0.0000       0.00000       A     3.39611e-01     4.49156e-01
 o28bf                                  8      0.0000       0.00000       A     3.04857e-01     6.11370e-01
 o29bf                                  8      0.0000       0.00000       A     3.04857e-01     6.11370e-01
 h30bf                                  1      0.0000       0.00000       A     2.62399e-01     6.76733e-02
 h31bf                                  1      0.0000       0.00000       A     2.62381e-01     6.75967e-02
 h32bf                                  1      0.0000       0.00000       A     2.53506e-01     6.72855e-02
 h33bf                                  1      0.0000       0.00000       A     2.53506e-01     6.72855e-02
 h34bf                                  1      0.0000       0.00000       A     1.10952e-01     4.04428e-02
 h35bf                                  1      0.0000       0.00000       A     2.62441e-01     6.73892e-02
 h36bf                                  1      0.0000       0.00000       A     2.62730e-01     6.79606e-02
 h37bf                                  1      0.0000       0.00000       A     2.62504e-01     6.80245e-02
 h38bf                                  1      0.0000       0.00000       A     2.62744e-01     6.79622e-02
 h39bf                                  1      0.0000       0.00000       A     2.53644e-01     6.69998e-02
 h40bf                                  1      0.0000       0.00000       A     2.53583e-01     6.80915e-02
 h41bf                                  1      0.0000       0.00000       A     2.42021e-01     8.71597e-02
 h42bf                                  1      0.0000       0.00000       A     2.42021e-01     8.71597e-02
 h43bf                                  1      0.0000       0.00000       A     2.42021e-01     8.71597e-02

[ moleculetype ]
;name             nrexcl
 62_flip               3

[ atoms ]
;       nr            type      resi   res      atom      cgnr      charge          mass ; qtot
         1            c0bf         1   UNL        c0         1    -0.14199       12.0110 ; qtot   -0.142
         2            c1bf         1   UNL        c1         2     0.30813       12.0110 ; qtot    0.166
         3            c2bf         1   UNL        c2         3    -0.13090       12.0110 ; qtot    0.035
         4            c3bf         1   UNL        c3         4     0.01458       12.0110 ; qtot    0.050
         5            c4bf         1   UNL        c4         5     0.25847       12.0110 ; qtot    0.308
         6            c5bf         1   UNL        c5         6     0.21971       12.0110 ; qtot    0.528
         7            n6bf         1   UNL        n6         7    -0.62228       14.0070 ; qtot   -0.094
         8            c7bf         1   UNL        c7         8     0.29317       12.0110 ; qtot    0.199
         9            c8bf         1   UNL        c8         9     0.29405       12.0110 ; qtot    0.493
        10            n9bf         1   UNL        n9        10    -0.62285       14.0070 ; qtot   -0.130
        11           c10bf         1   UNL       c10        11    -0.00634       12.0110 ; qtot   -0.136
        12           n11bf         1   UNL       n11        12    -0.96404       14.0070 ; qtot   -1.100
        13           c12bf         1   UNL       c12        13    -0.07221       12.0110 ; qtot   -1.173
        14           c13bf         1   UNL       c13        14    -0.07469       12.0110 ; qtot   -1.247
        15           c14bf         1   UNL       c14        15    -0.05731       12.0110 ; qtot   -1.305
        16           c15bf         1   UNL       c15        16    -0.09248       12.0110 ; qtot   -1.397
        17           c16bf         1   UNL       c16        17    -0.10060       12.0110 ; qtot   -1.498
        18           n17bf         1   UNL       n17        18     0.03145       14.0070 ; qtot   -1.466
        19           o18bf         1   UNL       o18        19    -0.04656       15.9990 ; qtot   -1.513
        20           n19bf         1   UNL       n19        20     0.02923       14.0070 ; qtot   -1.483
        21           c20bf         1   UNL       c20        21     0.35358       12.0110 ; qtot   -1.130
        22           c21bf         1   UNL       c21        22    -0.27733       12.0110 ; qtot   -1.407
        23           c22bf         1   UNL       c22        23    -0.03902       12.0110 ; qtot   -1.446
        24           c23bf         1   UNL       c23        24     0.28639       12.0110 ; qtot   -1.160
        25           n24bf         1   UNL       n24        25    -0.60355       14.0070 ; qtot   -1.763
        26           c25bf         1   UNL       c25        26     0.27846       12.0110 ; qtot   -1.485
        27           s26bf         1   UNL       s26        27     0.99436       32.0670 ; qtot   -0.491
        28           c27bf         1   UNL       c27        28    -0.29607       12.0110 ; qtot   -0.787
        29           o28bf         1   UNL       o28        29    -0.51400       15.9990 ; qtot   -1.301
        30           o29bf         1   UNL       o29        30    -0.51400       15.9990 ; qtot   -1.815
        31           h30bf         1   UNL       h30        31     0.14328        1.0080 ; qtot   -1.671
        32           h31bf         1   UNL       h31        32     0.12730        1.0080 ; qtot   -1.544
        33           h32bf         1   UNL       h32        33     0.03158        1.0080 ; qtot   -1.512
        34           h33bf         1   UNL       h33        34     0.03160        1.0080 ; qtot   -1.481
        35           h34bf         1   UNL       h34        35     0.51181        1.0080 ; qtot   -0.969
        36           h35bf         1   UNL       h35        36     0.13038        1.0080 ; qtot   -0.839
        37           h36bf         1   UNL       h36        37     0.14641        1.0080 ; qtot   -0.692
        38           h37bf         1   UNL       h37        38     0.15463        1.0080 ; qtot   -0.538
        39           h38bf         1   UNL       h38        39     0.15079        1.0080 ; qtot   -0.387
        40           h39bf         1   UNL       h39        40     0.03700        1.0080 ; qtot   -0.350
        41           h40bf         1   UNL       h40        41     0.03589        1.0080 ; qtot   -0.314
        42           h41bf         1   UNL       h41        42     0.10467        1.0080 ; qtot   -0.209
        43           h42bf         1   UNL       h42        43     0.10467        1.0080 ; qtot   -0.105
        44           h43bf         1   UNL       h43        44     0.10463        1.0080 ; qtot   -0.000

[ bonds ]
;       ai        aj funct               r               k
         1         2     1        0.138622   325678.790723
         1         5     1        0.141521   284459.010498
         1        31     1        0.108434   324306.120020
         2         3     1        0.142346   251378.136865
         2        12     1        0.140593   260287.089453
         3         4     1        0.138617   330849.365869
         3        32     1        0.108420   321509.091504
         4         6     1        0.143450   236938.638037
         4        11     1        0.148422   212128.225415
         5         6     1        0.143386   223579.461084
         5        10     1        0.136675   270922.835840
         6         7     1        0.136378   268382.250977
         7         8     1        0.131881   374103.202393
         8         9     1        0.142216   238192.510107
         8        33     1        0.108820   315940.162988
         9        10     1        0.131846   380187.239941
         9        34     1        0.108836   315483.763770
        11        13     1        0.144942   215891.744141
        11        15     1        0.137665   355611.960254
        12        21     1        0.138908   287909.048437
        12        35     1        0.101485   406811.259766
        13        14     1        0.136736   395024.913379
        13        36     1        0.108520   322300.460986
        14        17     1        0.142786   283163.180957
        14        37     1        0.108505   326036.923145
        15        16     1        0.142500   282154.746045
        15        38     1        0.108421   327036.215771
        16        17     1        0.143757   218881.628906
        16        20     1        0.132571   349455.576074
        17        18     1        0.132430   352721.976660
        18        19     1        0.137087   153551.484839
        19        20     1        0.137020   154972.790967
        21        22     1        0.141314   265581.391895
        21        26     1        0.141520   257222.712939
        22        23     1        0.139402   313134.068799
        22        27     1        0.180715   124483.627490
        23        24     1        0.139506   299656.731641
        23        39     1        0.108446   326160.114160
        24        25     1        0.133977   313656.532520
        24        40     1        0.108702   319547.177539
        25        26     1        0.133244   341315.162793
        26        41     1        0.108642   319937.180273
        27        28     1        0.180772   140787.539600
        27        29     1        0.147464   495020.215039
        27        30     1        0.147464   495020.215039
        28        42     1        0.109028   319230.108789
        28        43     1        0.109028   319230.108789
        28        44     1        0.109028   319230.108789

[ angles ]
;       ai        aj        ak funct           theta             cth
         1         2         3     1      119.340256      642.053685
         1         2        12     1      121.254745      492.361087
         1         5         6     1      120.564919      663.113437
         1         5        10     1      118.281189      431.308051
         2         1         5     1      120.257889      537.525444
         2         1        31     1      121.917053      423.581575
         2         3         4     1      122.418068      713.462784
         2         3        32     1      118.470383      447.200912
         2        12        21     1      126.297546      421.362177
         2        12        35     1      115.426346      433.799388
         3         2        12     1      119.236755      541.059908
         3         4         6     1      118.276855      534.364269
         3         4        11     1      118.947021      478.003039
         4         3        32     1      118.676208      416.104310
         4         6         5     1      118.954453      696.915057
         4         6         7     1      120.399147      430.458048
         4        11        13     1      118.743881      545.108178
         4        11        15     1      120.772934      436.580570
         5         1        31     1      117.843239      439.647833
         5         6         7     1      120.208412      782.715594
         5        10         9     1      116.661819      559.934704
         6         4        11     1      122.509727      451.874873
         6         5        10     1      121.322975      705.924740
         6         7         8     1      117.611557      602.010986
         7         8         9     1      122.256546      732.863901
         7         8        33     1      117.339157      362.478934
         8         9        10     1      122.299545      738.442163
         8         9        34     1      120.145851      429.987368
         9         8        33     1      120.142014      430.475797
        10         9        34     1      117.380966      342.428057
        11        13        14     1      123.152359      649.613946
        11        13        36     1      117.585709      425.865934
        11        15        16     1      117.651077      553.963234
        11        15        38     1      121.724632      404.749330
        12        21        22     1      121.389572      543.101025
        12        21        26     1      122.505417      578.362793
        13        11        15     1      120.339828      650.431389
        13        14        17     1      116.892563      544.898454
        13        14        37     1      122.174355      423.442175
        14        13        36     1      119.453110      406.289409
        14        17        16     1      120.375443      651.844804
        14        17        18     1      130.434631      427.261952
        15        16        17     1      121.029160      685.612524
        15        16        20     1      129.980804      429.093090
        16        15        38     1      120.511818      420.252238
        16        17        18     1      108.873863      253.762160
        16        20        19     1      104.736130      594.477348
        17        14        37     1      120.844315      434.985012
        17        16        20     1      108.715477      233.763411
        17        18        19     1      104.730125      602.221221
        18        19        20     1      113.084999      518.839494
        21        12        35     1      114.551170      450.222622
        21        22        23     1      120.275772      760.585008
        21        22        27     1      121.663406      744.979153
        21        26        25     1      124.232620      770.104221
        21        26        41     1      119.153419      415.430290
        22        21        26     1      115.672928      673.644749
        22        23        24     1      118.684891      679.603961
        22        23        39     1      120.270653      343.599700
        22        27        28     1      103.486084      654.077513
        22        27        29     1      107.938034      640.902216
        22        27        30     1      107.938034      640.902216
        23        22        27     1      117.699501      539.880859
        23        24        25     1      122.754715      730.070141
        23        24        40     1      120.538696      415.343272
        24        23        39     1      121.212906      424.346412
        24        25        26     1      118.320412      693.264782
        25        24        40     1      116.530663      356.374383
        25        26        41     1      116.504784      340.209521
        27        28        42     1      107.672256      569.998368
        27        28        43     1      107.672256      569.998368
        27        28        44     1      107.672256      569.998368
        28        27        29     1      107.539932      732.341412
        28        27        30     1      107.539932      732.341412
        29        27        30     1      120.015259      741.792249
        42        28        43     1      111.147987      344.776258
        42        28        44     1      111.147987      344.776258
        43        28        44     1      111.147987      344.776258

[ dihedrals ] ; propers for gromacs 4.5 or higher, use funct 9
;       ai        aj        ak        al funct           phase               k        pn
         1         2         3         4     9        0.000000        0.165377         1
         1         2         3         4     9      180.000000       14.081412         2
         1         2         3         4     9        0.000000       -0.817257         3
         1         2         3         4     9      180.000000       -0.234038         4
         1         2         3        32     9        0.000000       -0.064753         1
         1         2         3        32     9      180.000000       11.935983         2
         1         2         3        32     9        0.000000       -0.432953         3
         1         2         3        32     9      180.000000        0.110544         4
         1         2        12        21     9        0.000000       -0.167872         1
         1         2        12        21     9      180.000000        3.526328         2
         1         2        12        21     9        0.000000       -0.356689         3
         1         2        12        21     9      180.000000        0.139573         4
         1         2        12        35     9        0.000000       -0.457731         1
         1         2        12        35     9      180.000000        3.512781         2
         1         2        12        35     9        0.000000       -0.099182         3
         1         2        12        35     9      180.000000        0.073473         4
         1         5         6         4     9        0.000000        0.152887         1
         1         5         6         4     9      180.000000       11.438949         2
         1         5         6         4     9        0.000000       -0.458058         3
         1         5         6         4     9      180.000000       -0.209775         4
         1         5         6         7     9        0.000000        0.340548         1
         1         5         6         7     9      180.000000       11.179590         2
         1         5         6         7     9        0.000000       -0.065208         3
         1         5         6         7     9      180.000000       -0.244500         4
         1         5        10         9     9        0.000000       -0.023334         1
         1         5        10         9     9      180.000000       18.424194         2
         1         5        10         9     9        0.000000        0.154347         3
         1         5        10         9     9      180.000000       -0.275637         4
         2         1         5         6     9        0.000000       -0.535156         1
         2         1         5         6     9      180.000000       13.643159         2
         2         1         5         6     9        0.000000       -0.954561         3
         2         1         5         6     9      180.000000       -0.185752         4
         2         1         5        10     9        0.000000       -0.306896         1
         2         1         5        10     9      180.000000       14.010283         2
         2         1         5        10     9        0.000000       -0.425194         3
         2         1         5        10     9      180.000000       -0.392179         4
         2         3         4         6     9        0.000000       -0.226879         1
         2         3         4         6     9      180.000000       19.381295         2
         2         3         4         6     9        0.000000       -1.550707         3
         2         3         4         6     9      180.000000       -0.316525         4
         2         3         4        11     9        0.000000        0.396201         1
         2         3         4        11     9      180.000000       18.714992         2
         2         3         4        11     9        0.000000        0.130525         3
         2         3         4        11     9      180.000000       -0.731570         4
         2        12        21        22     9        0.000000       -1.816149         1
         2        12        21        22     9      180.000000        4.619861         2
         2        12        21        22     9        0.000000       -0.590150         3
         2        12        21        22     9      180.000000        0.059912         4
         2        12        21        26     9        0.000000        1.786048         1
         2        12        21        26     9      180.000000        3.116502         2
         2        12        21        26     9        0.000000       -0.286577         3
         2        12        21        26     9      180.000000        0.145436         4
         3         2         1         5     9        0.000000       -0.172695         1
         3         2         1         5     9      180.000000       17.269977         2
         3         2         1         5     9        0.000000       -1.150046         3
         3         2         1         5     9      180.000000       -0.415713         4
         3         2         1        31     9        0.000000        0.057193         1
         3         2         1        31     9      180.000000       13.340746         2
         3         2         1        31     9        0.000000       -0.358398         3
         3         2         1        31     9      180.000000        0.131357         4
         3         2        12        21     9        0.000000       -0.235195         1
         3         2        12        21     9      180.000000        3.390104         2
         3         2        12        21     9        0.000000        0.020232         3
         3         2        12        21     9      180.000000        0.120802         4
         3         2        12        35     9        0.000000       -0.401551         1
         3         2        12        35     9      180.000000        3.316239         2
         3         2        12        35     9        0.000000        0.053714         3
         3         2        12        35     9      180.000000        0.093664         4
         3         4         6         5     9        0.000000       -0.398877         1
         3         4         6         5     9      180.000000       10.559723         2
         3         4         6         5     9        0.000000       -0.860770         3
         3         4         6         5     9      180.000000        0.041650         4
         3         4         6         7     9        0.000000        0.022179         1
         3         4         6         7     9      180.000000        9.586241         2
         3         4         6         7     9        0.000000       -0.317745         3
         3         4         6         7     9      180.000000       -0.076443         4
         3         4        11        13     9        0.000000       -0.249964         1
         3         4        11        13     9      180.000000        4.690332         2
         3         4        11        13     9        0.000000       -0.171406         3
         3         4        11        13     9      180.000000        0.744909         4
         3         4        11        15     9        0.000000        0.081876         1
         3         4        11        15     9      180.000000        3.915983         2
         3         4        11        15     9        0.000000        0.506208         3
         3         4        11        15     9      180.000000        0.363550         4
         4         3         2        12     9        0.000000        0.205161         1
         4         3         2        12     9      180.000000       15.496283         2
         4         3         2        12     9        0.000000        0.105489         3
         4         3         2        12     9      180.000000       -0.437969         4
         4         6         5        10     9        0.000000       -0.272759         1
         4         6         5        10     9      180.000000       10.217843         2
         4         6         5        10     9        0.000000        0.088608         3
         4         6         5        10     9      180.000000       -0.279213         4
         4         6         7         8     9        0.000000        0.610213         1
         4         6         7         8     9      180.000000       16.345357         2
         4         6         7         8     9        0.000000        0.391808         3
         4         6         7         8     9      180.000000       -0.379231         4
         4        11        13        14     9        0.000000        0.342454         1
         4        11        13        14     9      180.000000       12.986703         2
         4        11        13        14     9        0.000000       -0.154068         3
         4        11        13        14     9      180.000000       -0.234073         4
         4        11        13        36     9        0.000000        0.067044         1
         4        11        13        36     9      180.000000       12.248980         2
         4        11        13        36     9        0.000000       -0.279034         3
         4        11        13        36     9      180.000000        0.125402         4
         4        11        15        16     9        0.000000        0.488147         1
         4        11        15        16     9      180.000000       20.882891         2
         4        11        15        16     9        0.000000        0.409660         3
         4        11        15        16     9      180.000000       -0.935612         4
         4        11        15        38     9        0.000000        0.068718         1
         4        11        15        38     9      180.000000       14.033076         2
         4        11        15        38     9        0.000000       -0.006572         3
         4        11        15        38     9      180.000000       -0.027645         4
         5         1         2        12     9        0.000000        0.246512         1
         5         1         2        12     9      180.000000       19.522853         2
         5         1         2        12     9        0.000000        0.055608         3
         5         1         2        12     9      180.000000       -0.772829         4
         5         6         4        11     9        0.000000        0.118373         1
         5         6         4        11     9      180.000000       12.143211         2
         5         6         4        11     9        0.000000       -0.008816         3
         5         6         4        11     9      180.000000       -0.315088         4
         5         6         7         8     9        0.000000        0.188120         1
         5         6         7         8     9      180.000000       16.793790         2
         5         6         7         8     9        0.000000       -0.050993         3
         5         6         7         8     9      180.000000       -0.239062         4
         5        10         9         8     9        0.000000       -0.161990         1
         5        10         9         8     9      180.000000       25.805864         2
         5        10         9         8     9        0.000000       -0.989158         3
         5        10         9         8     9      180.000000       -0.201960         4
         5        10         9        34     9        0.000000        0.808513         1
         5        10         9        34     9      180.000000       23.535888         2
         5        10         9        34     9        0.000000        0.064005         3
         5        10         9        34     9      180.000000       -0.475717         4
         6         4         3        32     9        0.000000        0.199153         1
         6         4         3        32     9      180.000000       15.676851         2
         6         4         3        32     9        0.000000       -0.326223         3
         6         4         3        32     9      180.000000        0.164781         4
         6         4        11        13     9        0.000000       -0.533192         1
         6         4        11        13     9      180.000000        4.545126         2
         6         4        11        13     9        0.000000        0.351961         3
         6         4        11        13     9      180.000000        0.674106         4
         6         4        11        15     9        0.000000       -0.127439         1
         6         4        11        15     9      180.000000        3.803873         2
         6         4        11        15     9        0.000000       -0.608812         3
         6         4        11        15     9      180.000000        0.785938         4
         6         5         1        31     9        0.000000       -0.170721         1
         6         5         1        31     9      180.000000       10.545502         2
         6         5         1        31     9        0.000000       -0.262492         3
         6         5         1        31     9      180.000000       -0.003795         4
         6         5        10         9     9        0.000000       -0.107916         1
         6         5        10         9     9      180.000000       16.440884         2
         6         5        10         9     9        0.000000        0.043441         3
         6         5        10         9     9      180.000000       -0.231039         4
         6         7         8         9     9        0.000000        0.103245         1
         6         7         8         9     9      180.000000       25.050131         2
         6         7         8         9     9        0.000000       -0.948796         3
         6         7         8         9     9      180.000000       -0.159021         4
         6         7         8        33     9        0.000000        0.727425         1
         6         7         8        33     9      180.000000       22.903268         2
         6         7         8        33     9        0.000000        0.106514         3
         6         7         8        33     9      180.000000       -0.552430         4
         7         6         4        11     9        0.000000       -0.446062         1
         7         6         4        11     9      180.000000       12.267793         2
         7         6         4        11     9        0.000000       -0.166688         3
         7         6         4        11     9      180.000000       -0.398815         4
         7         6         5        10     9        0.000000        0.159900         1
         7         6         5        10     9      180.000000       11.086216         2
         7         6         5        10     9        0.000000        0.160518         3
         7         6         5        10     9      180.000000       -0.397158         4
         7         8         9        10     9        0.000000       -0.713203         1
         7         8         9        10     9      180.000000       11.742392         2
         7         8         9        10     9        0.000000       -0.552181         3
         7         8         9        10     9      180.000000       -0.521535         4
         7         8         9        34     9        0.000000       -0.026031         1
         7         8         9        34     9      180.000000        9.508287         2
         7         8         9        34     9        0.000000       -0.255749         3
         7         8         9        34     9      180.000000       -0.134502         4
        10         5         1        31     9        0.000000        0.016940         1
        10         5         1        31     9      180.000000       11.980067         2
        10         5         1        31     9        0.000000       -0.349905         3
        10         5         1        31     9      180.000000        0.012863         4
        10         9         8        33     9        0.000000       -0.199022         1
        10         9         8        33     9      180.000000        9.267615         2
        10         9         8        33     9        0.000000       -0.318099         3
        10         9         8        33     9      180.000000       -0.090079         4
        11         4         3        32     9        0.000000       -0.082750         1
        11         4         3        32     9      180.000000       14.500703         2
        11         4         3        32     9        0.000000       -0.140815         3
        11         4         3        32     9      180.000000        0.208469         4
        11        13        14        17     9        0.000000       -0.210020         1
        11        13        14        17     9      180.000000       22.658331         2
        11        13        14        17     9        0.000000       -1.453117         3
        11        13        14        17     9      180.000000       -0.750691         4
        11        13        14        37     9        0.000000        0.044920         1
        11        13        14        37     9      180.000000       16.306125         2
        11        13        14        37     9        0.000000       -0.487135         3
        11        13        14        37     9      180.000000       -0.004987         4
        11        15        16        17     9        0.000000       -0.427608         1
        11        15        16        17     9      180.000000       15.106515         2
        11        15        16        17     9        0.000000       -1.458729         3
        11        15        16        17     9      180.000000       -0.334969         4
        11        15        16        20     9        0.000000       -0.040694         1
        11        15        16        20     9      180.000000        9.130787         2
        11        15        16        20     9        0.000000       -0.071308         3
        11        15        16        20     9      180.000000       -0.214698         4
        12         2         1        31     9        0.000000       -0.006423         1
        12         2         1        31     9      180.000000       15.238161         2
        12         2         1        31     9        0.000000       -0.072526         3
        12         2         1        31     9      180.000000        0.161232         4
        12         2         3        32     9        0.000000       -0.058685         1
        12         2         3        32     9      180.000000       14.053045         2
        12         2         3        32     9        0.000000       -0.041461         3
        12         2         3        32     9      180.000000        0.138031         4
        12        21        22        23     9        0.000000        0.142199         1
        12        21        22        23     9      180.000000       15.897984         2
        12        21        22        23     9        0.000000        0.030266         3
        12        21        22        23     9      180.000000       -0.460851         4
        12        21        22        27     9        0.000000       -0.927876         1
        12        21        22        27     9      180.000000       13.516795         2
        12        21        22        27     9        0.000000       -0.073923         3
        12        21        22        27     9      180.000000       -0.622707         4
        12        21        26        25     9        0.000000        0.186748         1
        12        21        26        25     9      180.000000       16.683917         2
        12        21        26        25     9        0.000000        0.179115         3
        12        21        26        25     9      180.000000       -0.684726         4
        12        21        26        41     9        0.000000       -0.299542         1
        12        21        26        41     9      180.000000       14.371219         2
        12        21        26        41     9        0.000000       -0.253274         3
        12        21        26        41     9      180.000000        0.145399         4
        13        11        15        16     9        0.000000       -0.334086         1
        13        11        15        16     9      180.000000       22.290994         2
        13        11        15        16     9        0.000000       -1.508590         3
        13        11        15        16     9      180.000000       -0.605839         4
        13        11        15        38     9        0.000000        0.037850         1
        13        11        15        38     9      180.000000       15.930147         2
        13        11        15        38     9        0.000000       -0.283679         3
        13        11        15        38     9      180.000000       -0.017295         4
        13        14        17        16     9        0.000000       -0.285766         1
        13        14        17        16     9      180.000000       16.153661         2
        13        14        17        16     9        0.000000       -1.743006         3
        13        14        17        16     9      180.000000       -0.293498         4
        13        14        17        18     9        0.000000        0.100109         1
        13        14        17        18     9      180.000000       10.559948         2
        13        14        17        18     9        0.000000       -0.484527         3
        13        14        17        18     9      180.000000       -0.179735         4
        14        13        11        15     9        0.000000        0.119845         1
        14        13        11        15     9      180.000000       13.372289         2
        14        13        11        15     9        0.000000       -0.372201         3
        14        13        11        15     9      180.000000       -0.344383         4
        14        17        16        15     9        0.000000       -0.037049         1
        14        17        16        15     9      180.000000        9.233052         2
        14        17        16        15     9        0.000000       -1.110429         3
        14        17        16        15     9      180.000000        0.149226         4
        14        17        16        20     9        0.000000        0.311533         1
        14        17        16        20     9      180.000000        9.496910         2
        14        17        16        20     9        0.000000       -1.617965         3
        14        17        16        20     9      180.000000        0.067096         4
        14        17        18        19     9        0.000000        0.514671         1
        14        17        18        19     9      180.000000       26.214032         2
        14        17        18        19     9        0.000000       -1.350547         3
        14        17        18        19     9      180.000000       -0.414760         4
        15        11        13        36     9        0.000000        0.204126         1
        15        11        13        36     9      180.000000       11.986582         2
        15        11        13        36     9        0.000000       -0.458271         3
        15        11        13        36     9      180.000000        0.035471         4
        15        16        17        18     9        0.000000        0.200357         1
        15        16        17        18     9      180.000000        9.344020         2
        15        16        17        18     9        0.000000       -1.479109         3
        15        16        17        18     9      180.000000        0.070988         4
        15        16        20        19     9        0.000000        0.491085         1
        15        16        20        19     9      180.000000       24.836553         2
        15        16        20        19     9        0.000000       -1.939456         3
        15        16        20        19     9      180.000000       -0.229735         4
        16        17        14        37     9        0.000000       -0.103328         1
        16        17        14        37     9      180.000000       10.360870         2
        16        17        14        37     9        0.000000       -0.125709         3
        16        17        14        37     9      180.000000        0.013204         4
        16        17        18        19     9        0.000000        0.403840         1
        16        17        18        19     9      180.000000       41.580427         2
        16        17        18        19     9        0.000000       -7.968799         3
        16        17        18        19     9      180.000000       -0.206828         4
        16        20        19        18     9        0.000000       -0.448330         1
        16        20        19        18     9      180.000000       32.408559         2
        16        20        19        18     9        0.000000       -5.011064         3
        16        20        19        18     9      180.000000       -0.137543         4
        17        14        13        36     9        0.000000        0.079128         1
        17        14        13        36     9      180.000000       18.854233         2
        17        14        13        36     9        0.000000       -0.199492         3
        17        14        13        36     9      180.000000       -0.151405         4
        17        16        15        38     9        0.000000       -0.098343         1
        17        16        15        38     9      180.000000       10.298960         2
        17        16        15        38     9        0.000000       -0.229973         3
        17        16        15        38     9      180.000000       -0.057125         4
        17        16        20        19     9        0.000000        0.339130         1
        17        16        20        19     9      180.000000       40.380115         2
        17        16        20        19     9        0.000000       -8.010657         3
        17        16        20        19     9      180.000000       -0.274641         4
        17        18        19        20     9        0.000000       -0.390592         1
        17        18        19        20     9      180.000000       31.861929         2
        17        18        19        20     9        0.000000       -4.917127         3
        17        18        19        20     9      180.000000       -0.087308         4
        18        17        14        37     9        0.000000       -0.086038         1
        18        17        14        37     9      180.000000        8.336565         2
        18        17        14        37     9        0.000000       -0.069641         3
        18        17        14        37     9      180.000000       -0.076033         4
        18        17        16        20     9        0.000000       -0.262360         1
        18        17        16        20     9      180.000000       17.075257         2
        18        17        16        20     9        0.000000       -6.403497         3
        18        17        16        20     9      180.000000       -0.030729         4
        20        16        15        38     9        0.000000       -0.180195         1
        20        16        15        38     9      180.000000        7.435410         2
        20        16        15        38     9        0.000000        0.026942         3
        20        16        15        38     9      180.000000       -0.017735         4
        21        22        23        24     9        0.000000       -0.049559         1
        21        22        23        24     9      180.000000       18.886873         2
        21        22        23        24     9        0.000000       -2.021566         3
        21        22        23        24     9      180.000000       -0.405198         4
        21        22        23        39     9        0.000000        0.229105         1
        21        22        23        39     9      180.000000       14.976782         2
        21        22        23        39     9        0.000000       -0.507225         3
        21        22        23        39     9      180.000000        0.085320         4
        21        22        27        28     9        0.000000        3.729087         1
        21        22        27        28     9      180.000000       -2.195928         2
        21        22        27        28     9        0.000000        0.799428         3
        21        22        27        28     9      180.000000        0.054293         4
        21        22        27        29     9        0.000000       -1.334283         1
        21        22        27        29     9      180.000000        0.814377         2
        21        22        27        29     9        0.000000        0.785313         3
        21        22        27        29     9      180.000000       -0.187784         4
        21        22        27        30     9        0.000000       -1.334283         1
        21        22        27        30     9      180.000000        0.814377         2
        21        22        27        30     9        0.000000        0.785313         3
        21        22        27        30     9      180.000000       -0.187784         4
        21        26        25        24     9        0.000000        0.319722         1
        21        26        25        24     9      180.000000       22.949103         2
        21        26        25        24     9        0.000000       -0.741216         3
        21        26        25        24     9      180.000000        0.175923         4
        22        21        12        35     9        0.000000        2.440461         1
        22        21        12        35     9      180.000000        3.205589         2
        22        21        12        35     9        0.000000       -0.727467         3
        22        21        12        35     9      180.000000        0.027702         4
        22        21        26        25     9        0.000000       -0.510166         1
        22        21        26        25     9      180.000000       14.375531         2
        22        21        26        25     9        0.000000       -0.595359         3
        22        21        26        25     9      180.000000       -0.489937         4
        22        21        26        41     9        0.000000        0.058995         1
        22        21        26        41     9      180.000000       12.296403         2
        22        21        26        41     9        0.000000       -0.329284         3
        22        21        26        41     9      180.000000        0.069067         4
        22        23        24        25     9        0.000000       -0.220827         1
        22        23        24        25     9      180.000000       18.549630         2
        22        23        24        25     9        0.000000       -1.222990         3
        22        23        24        25     9      180.000000       -0.581963         4
        22        23        24        40     9        0.000000        0.008007         1
        22        23        24        40     9      180.000000       14.871304         2
        22        23        24        40     9        0.000000       -0.365301         3
        22        23        24        40     9      180.000000       -0.122426         4
        22        27        28        42     9        0.000000        0.134671         1
        22        27        28        42     9      180.000000       -0.180389         2
        22        27        28        42     9        0.000000        0.326690         3
        22        27        28        42     9      180.000000       -0.016353         4
        22        27        28        43     9        0.000000        0.134671         1
        22        27        28        43     9      180.000000       -0.180389         2
        22        27        28        43     9        0.000000        0.326690         3
        22        27        28        43     9      180.000000       -0.016353         4
        22        27        28        44     9        0.000000        0.134671         1
        22        27        28        44     9      180.000000       -0.180389         2
        22        27        28        44     9        0.000000        0.326690         3
        22        27        28        44     9      180.000000       -0.016353         4
        23        22        21        26     9        0.000000       -0.037262         1
        23        22        21        26     9      180.000000       14.380146         2
        23        22        21        26     9        0.000000       -0.900345         3
        23        22        21        26     9      180.000000       -0.221952         4
        23        22        27        28     9        0.000000        0.119866         1
        23        22        27        28     9      180.000000       -0.559451         2
        23        22        27        28     9        0.000000       -0.551232         3
        23        22        27        28     9      180.000000        0.255504         4
        23        22        27        29     9        0.000000       -0.090527         1
        23        22        27        29     9      180.000000        0.655865         2
        23        22        27        29     9        0.000000       -0.321290         3
        23        22        27        29     9      180.000000       -0.045698         4
        23        22        27        30     9        0.000000       -0.090527         1
        23        22        27        30     9      180.000000        0.655865         2
        23        22        27        30     9        0.000000       -0.321290         3
        23        22        27        30     9      180.000000       -0.045698         4
        23        24        25        26     9        0.000000        0.177562         1
        23        24        25        26     9      180.000000       22.523858         2
        23        24        25        26     9        0.000000       -0.901753         3
        23        24        25        26     9      180.000000       -0.193725         4
        24        23        22        27     9        0.000000        0.192523         1
        24        23        22        27     9      180.000000       13.995355         2
        24        23        22        27     9        0.000000        0.189776         3
        24        23        22        27     9      180.000000       -0.443900         4
        24        25        26        41     9        0.000000        1.115355         1
        24        25        26        41     9      180.000000       20.962222         2
        24        25        26        41     9        0.000000        0.247397         3
        24        25        26        41     9      180.000000       -0.016301         4
        25        24        23        39     9        0.000000        0.066372         1
        25        24        23        39     9      180.000000       14.573595         2
        25        24        23        39     9        0.000000       -0.318036         3
        25        24        23        39     9      180.000000       -0.017204         4
        26        21        12        35     9        0.000000       -1.272591         1
        26        21        12        35     9      180.000000        2.989698         2
        26        21        12        35     9        0.000000       -0.423807         3
        26        21        12        35     9      180.000000        0.040258         4
        26        21        22        27     9        0.000000        0.366401         1
        26        21        22        27     9      180.000000       11.025740         2
        26        21        22        27     9        0.000000        0.150287         3
        26        21        22        27     9      180.000000       -0.363523         4
        26        25        24        40     9        0.000000        0.988693         1
        26        25        24        40     9      180.000000       20.417148         2
        26        25        24        40     9        0.000000        0.253449         3
        26        25        24        40     9      180.000000       -0.430136         4
        27        22        23        39     9        0.000000       -0.032267         1
        27        22        23        39     9      180.000000       12.082714         2
        27        22        23        39     9        0.000000       -0.269976         3
        27        22        23        39     9      180.000000        0.014566         4
        29        27        28        42     9        0.000000       -0.020338         1
        29        27        28        42     9      180.000000       -0.042566         2
        29        27        28        42     9        0.000000        0.357266         3
        29        27        28        42     9      180.000000        0.004050         4
        29        27        28        43     9        0.000000       -0.020338         1
        29        27        28        43     9      180.000000       -0.042566         2
        29        27        28        43     9        0.000000        0.357266         3
        29        27        28        43     9      180.000000        0.004050         4
        29        27        28        44     9        0.000000       -0.020338         1
        29        27        28        44     9      180.000000       -0.042566         2
        29        27        28        44     9        0.000000        0.357266         3
        29        27        28        44     9      180.000000        0.004050         4
        30        27        28        42     9        0.000000       -0.020338         1
        30        27        28        42     9      180.000000       -0.042566         2
        30        27        28        42     9        0.000000        0.357266         3
        30        27        28        42     9      180.000000        0.004050         4
        30        27        28        43     9        0.000000       -0.020338         1
        30        27        28        43     9      180.000000       -0.042566         2
        30        27        28        43     9        0.000000        0.357266         3
        30        27        28        43     9      180.000000        0.004050         4
        30        27        28        44     9        0.000000       -0.020338         1
        30        27        28        44     9      180.000000       -0.042566         2
        30        27        28        44     9        0.000000        0.357266         3
        30        27        28        44     9      180.000000        0.004050         4
        33         8         9        34     9        0.000000       -0.431714         1
        33         8         9        34     9      180.000000        6.869069         2
        33         8         9        34     9        0.000000       -0.569257         3
        33         8         9        34     9      180.000000        0.186658         4
        36        13        14        37     9        0.000000       -0.168839         1
        36        13        14        37     9      180.000000       13.526089         2
        36        13        14        37     9        0.000000       -0.718648         3
        36        13        14        37     9      180.000000        0.304778         4
        39        23        24        40     9        0.000000       -0.049750         1
        39        23        24        40     9      180.000000       11.944935         2
        39        23        24        40     9        0.000000       -0.710210         3
        39        23        24        40     9      180.000000        0.205813         4

[ dihedrals ] ; impropers
;       ai        aj        ak        al funct           phase               k        pn
         4         3         6        11     4      180.000000        0.291624         2
         4         6        11         3     4      180.000000        0.291624         2
         4        11         3         6     4      180.000000        0.291624         2
         8         7         9        33     4      180.000000        4.409855         2
         8         9        33         7     4      180.000000        4.409855         2
         8        33         7         9     4      180.000000        4.409855         2
         9         8        10        34     4      180.000000        4.162411         2
         9        10        34         8     4      180.000000        4.162411         2
         9        34         8        10     4      180.000000        4.162411         2
        14        13        17        37     4      180.000000        2.668655         2
        14        17        37        13     4      180.000000        2.668655         2
        14        37        13        17     4      180.000000        2.668655         2
        15        11        16        38     4      180.000000        1.595982         2
        15        16        38        11     4      180.000000        1.595982         2
        15        38        11        16     4      180.000000        1.595982         2
        24        23        25        40     4      180.000000        3.347115         2
        24        25        40        23     4      180.000000        3.347115         2
        24        40        23        25     4      180.000000        3.347115         2
        26        21        25        41     4      180.000000        3.547248         2
        26        25        41        21     4      180.000000        3.547248         2
        26        41        21        25     4      180.000000        3.547248         2

[ pairs ]
;       ai        aj funct
         1         4     1
         1         7     1
         1         9     1
         1        21     1
         1        32     1
         1        35     1
         2         6     1
         2        10     1
         2        11     1
         2        22     1
         2        26     1
         3         5     1
         3         7     1
         3        13     1
         3        15     1
         3        21     1
         3        31     1
         3        35     1
         4         8     1
         4        10     1
         4        12     1
         4        14     1
         4        16     1
         4        36     1
         4        38     1
         5         8     1
         5        11     1
         5        12     1
         5        34     1
         6         9     1
         6        13     1
         6        15     1
         6        31     1
         6        32     1
         6        33     1
         7        10     1
         7        11     1
         7        34     1
        10        31     1
        10        33     1
        11        17     1
        11        20     1
        11        32     1
        11        37     1
        12        23     1
        12        25     1
        12        27     1
        12        31     1
        12        32     1
        12        41     1
        13        16     1
        13        18     1
        13        38     1
        14        15     1
        14        19     1
        14        20     1
        15        18     1
        15        19     1
        15        36     1
        16        37     1
        17        36     1
        17        38     1
        18        37     1
        20        38     1
        21        24     1
        21        28     1
        21        29     1
        21        30     1
        21        39     1
        22        25     1
        22        35     1
        22        40     1
        22        41     1
        22        42     1
        22        43     1
        22        44     1
        23        26     1
        23        28     1
        23        29     1
        23        30     1
        24        27     1
        24        41     1
        25        39     1
        26        27     1
        26        35     1
        26        40     1
        27        39     1
        29        42     1
        29        43     1
        29        44     1
        30        42     1
        30        43     1
        30        44     1
        33        34     1
        36        37     1
        39        40     1
