; ITP file created by ByteFF-ML, 2026-02-21 07:43:44.951645

[ atomtypes ]
;name           bonded.type        at.num        mass        charge   ptype           sigma         epsilon
 c0bf                                   6      0.0000       0.00000       A     3.31696e-01     4.13508e-01
 c1bf                                   6      0.0000       0.00000       A     3.31534e-01     4.11219e-01
 c2bf                                   6      0.0000       0.00000       A     3.31588e-01     4.14304e-01
 c3bf                                   6      0.0000       0.00000       A     3.31165e-01     4.10846e-01
 c4bf                                   6      0.0000       0.00000       A     3.31387e-01     4.12836e-01
 c5bf                                   6      0.0000       0.00000       A     3.31581e-01     4.11588e-01
 n6bf                                   7      0.0000       0.00000       A     3.38246e-01     3.93082e-01
 c7bf                                   6      0.0000       0.00000       A     3.31514e-01     4.13144e-01
 c8bf                                   6      0.0000       0.00000       A     3.31562e-01     4.13392e-01
 n9bf                                   7      0.0000       0.00000       A     3.38456e-01     3.92772e-01
 c10bf                                  6      0.0000       0.00000       A     3.31336e-01     4.10881e-01
 c11bf                                  6      0.0000       0.00000       A     3.31426e-01     4.12989e-01
 c12bf                                  6      0.0000       0.00000       A     3.31516e-01     4.13160e-01
 c13bf                                  6      0.0000       0.00000       A     3.31466e-01     4.14201e-01
 c14bf                                  6      0.0000       0.00000       A     3.31339e-01     4.13797e-01
 c15bf                                  6      0.0000       0.00000       A     3.31479e-01     4.11647e-01
 n16bf                                  7      0.0000       0.00000       A     3.38291e-01     3.93844e-01
 c17bf                                  6      0.0000       0.00000       A     3.31574e-01     4.15235e-01
 s18bf                                 16      0.0000       0.00000       A     3.53179e-01     1.17801e+00
 n19bf                                  7      0.0000       0.00000       A     3.27929e-01     6.45227e-01
 c20bf                                  6      0.0000       0.00000       A     3.31581e-01     4.12886e-01
 c21bf                                  6      0.0000       0.00000       A     3.31298e-01     4.15822e-01
 c22bf                                  6      0.0000       0.00000       A     3.31194e-01     4.12903e-01
 c23bf                                  6      0.0000       0.00000       A     3.31482e-01     4.12140e-01
 n24bf                                  7      0.0000       0.00000       A     3.38344e-01     3.92967e-01
 c25bf                                  6      0.0000       0.00000       A     3.31706e-01     4.11681e-01
 s26bf                                 16      0.0000       0.00000       A     4.05645e-01     2.55729e-01
 o27bf                                  8      0.0000       0.00000       A     3.04857e-01     6.11370e-01
 o28bf                                  8      0.0000       0.00000       A     3.04857e-01     6.11370e-01
 c29bf                                  6      0.0000       0.00000       A     3.39611e-01     4.49156e-01
 h30bf                                  1      0.0000       0.00000       A     2.62399e-01     6.76733e-02
 h31bf                                  1      0.0000       0.00000       A     2.62381e-01     6.75967e-02
 h32bf                                  1      0.0000       0.00000       A     2.53506e-01     6.72855e-02
 h33bf                                  1      0.0000       0.00000       A     2.53506e-01     6.72855e-02
 h34bf                                  1      0.0000       0.00000       A     2.62441e-01     6.73892e-02
 h35bf                                  1      0.0000       0.00000       A     2.62597e-01     6.71115e-02
 h36bf                                  1      0.0000       0.00000       A     2.62541e-01     6.74148e-02
 h37bf                                  1      0.0000       0.00000       A     2.45199e-01     6.74659e-02
 h38bf                                  1      0.0000       0.00000       A     1.10952e-01     4.04428e-02
 h39bf                                  1      0.0000       0.00000       A     2.62744e-01     6.79622e-02
 h40bf                                  1      0.0000       0.00000       A     2.53644e-01     6.69998e-02
 h41bf                                  1      0.0000       0.00000       A     2.53583e-01     6.80915e-02
 h42bf                                  1      0.0000       0.00000       A     2.42021e-01     8.71597e-02
 h43bf                                  1      0.0000       0.00000       A     2.42021e-01     8.71597e-02
 h44bf                                  1      0.0000       0.00000       A     2.42021e-01     8.71597e-02

[ moleculetype ]
;name             nrexcl
 64_flip               3

[ atoms ]
;       nr            type      resi   res      atom      cgnr      charge          mass ; qtot
         1            c0bf         1   UNL        c0         1    -0.14199       12.0110 ; qtot   -0.142
         2            c1bf         1   UNL        c1         2     0.30813       12.0110 ; qtot    0.166
         3            c2bf         1   UNL        c2         3    -0.12971       12.0110 ; qtot    0.036
         4            c3bf         1   UNL        c3         4     0.02355       12.0110 ; qtot    0.060
         5            c4bf         1   UNL        c4         5     0.25847       12.0110 ; qtot    0.318
         6            c5bf         1   UNL        c5         6     0.22015       12.0110 ; qtot    0.539
         7            n6bf         1   UNL        n6         7    -0.62228       14.0070 ; qtot   -0.084
         8            c7bf         1   UNL        c7         8     0.29317       12.0110 ; qtot    0.209
         9            c8bf         1   UNL        c8         9     0.29405       12.0110 ; qtot    0.504
        10            n9bf         1   UNL        n9        10    -0.62285       14.0070 ; qtot   -0.119
        11           c10bf         1   UNL       c10        11    -0.02536       12.0110 ; qtot   -0.145
        12           c11bf         1   UNL       c11        12    -0.09024       12.0110 ; qtot   -0.235
        13           c12bf         1   UNL       c12        13    -0.05822       12.0110 ; qtot   -0.293
        14           c13bf         1   UNL       c13        14    -0.04925       12.0110 ; qtot   -0.342
        15           c14bf         1   UNL       c14        15    -0.17037       12.0110 ; qtot   -0.513
        16           c15bf         1   UNL       c15        16     0.08851       12.0110 ; qtot   -0.424
        17           n16bf         1   UNL       n16        17    -0.52256       14.0070 ; qtot   -0.947
        18           c17bf         1   UNL       c17        18     0.39954       12.0110 ; qtot   -0.547
        19           s18bf         1   UNL       s18        19     0.00114       32.0670 ; qtot   -0.546
        20           n19bf         1   UNL       n19        20    -0.96404       14.0070 ; qtot   -1.510
        21           c20bf         1   UNL       c20        21     0.35358       12.0110 ; qtot   -1.157
        22           c21bf         1   UNL       c21        22    -0.27733       12.0110 ; qtot   -1.434
        23           c22bf         1   UNL       c22        23    -0.03902       12.0110 ; qtot   -1.473
        24           c23bf         1   UNL       c23        24     0.28639       12.0110 ; qtot   -1.187
        25           n24bf         1   UNL       n24        25    -0.60355       14.0070 ; qtot   -1.790
        26           c25bf         1   UNL       c25        26     0.27846       12.0110 ; qtot   -1.512
        27           s26bf         1   UNL       s26        27     0.99436       32.0670 ; qtot   -0.517
        28           o27bf         1   UNL       o27        28    -0.51400       15.9990 ; qtot   -1.031
        29           o28bf         1   UNL       o28        29    -0.51400       15.9990 ; qtot   -1.545
        30           c29bf         1   UNL       c29        30    -0.29607       12.0110 ; qtot   -1.841
        31           h30bf         1   UNL       h30        31     0.14328        1.0080 ; qtot   -1.698
        32           h31bf         1   UNL       h31        32     0.12730        1.0080 ; qtot   -1.571
        33           h32bf         1   UNL       h32        33     0.03158        1.0080 ; qtot   -1.539
        34           h33bf         1   UNL       h33        34     0.03160        1.0080 ; qtot   -1.508
        35           h34bf         1   UNL       h34        35     0.12406        1.0080 ; qtot   -1.384
        36           h35bf         1   UNL       h35        36     0.13564        1.0080 ; qtot   -1.248
        37           h36bf         1   UNL       h36        37     0.13491        1.0080 ; qtot   -1.113
        38           h37bf         1   UNL       h37        38     0.06349        1.0080 ; qtot   -1.049
        39           h38bf         1   UNL       h38        39     0.51181        1.0080 ; qtot   -0.538
        40           h39bf         1   UNL       h39        40     0.15079        1.0080 ; qtot   -0.387
        41           h40bf         1   UNL       h40        41     0.03700        1.0080 ; qtot   -0.350
        42           h41bf         1   UNL       h41        42     0.03589        1.0080 ; qtot   -0.314
        43           h42bf         1   UNL       h42        43     0.10467        1.0080 ; qtot   -0.209
        44           h43bf         1   UNL       h43        44     0.10467        1.0080 ; qtot   -0.105
        45           h44bf         1   UNL       h44        45     0.10465        1.0080 ; qtot   -0.000

[ bonds ]
;       ai        aj funct               r               k
         1         2     1        0.138622   325678.790723
         1         5     1        0.141521   284459.010498
         1        31     1        0.108434   324306.120020
         2         3     1        0.142346   251378.136865
         2        20     1        0.140593   260287.140527
         3         4     1        0.138602   331375.430322
         3        32     1        0.108420   321509.091504
         4         6     1        0.143428   237650.638184
         4        11     1        0.148425   213452.171313
         5         6     1        0.143386   223579.461084
         5        10     1        0.136675   270922.835840
         6         7     1        0.136378   268382.250977
         7         8     1        0.131881   374103.202393
         8         9     1        0.142216   238192.510107
         8        33     1        0.108820   315940.162988
         9        10     1        0.131846   380187.239941
         9        34     1        0.108836   315483.763770
        11        12     1        0.141720   263375.189941
        11        14     1        0.140255   286450.419824
        12        13     1        0.138894   334466.007910
        12        35     1        0.108488   321564.558105
        13        16     1        0.140351   298366.213818
        13        36     1        0.108538   322796.340576
        14        15     1        0.139616   310787.923486
        14        37     1        0.108472   322500.059033
        15        16     1        0.141815   242334.373877
        15        19     1        0.175209   148376.759912
        16        17     1        0.138973   232317.672559
        17        18     1        0.129460   449590.821094
        18        19     1        0.176606   113971.135962
        18        38     1        0.108497   329425.569873
        20        21     1        0.138908   287909.073975
        20        39     1        0.101485   406811.208691
        21        22     1        0.141314   265581.391895
        21        26     1        0.141520   257222.712939
        22        23     1        0.139402   313134.068799
        22        27     1        0.180715   124483.627490
        23        24     1        0.139506   299656.731641
        23        40     1        0.108446   326160.114160
        24        25     1        0.133977   313656.532520
        24        41     1        0.108702   319547.152002
        25        26     1        0.133244   341315.111719
        26        42     1        0.108642   319937.129199
        27        28     1        0.147464   495020.215039
        27        29     1        0.147464   495020.215039
        27        30     1        0.180772   140787.539600
        30        43     1        0.109028   319230.108789
        30        44     1        0.109028   319230.108789
        30        45     1        0.109028   319230.108789

[ angles ]
;       ai        aj        ak funct           theta             cth
         1         2         3     1      119.340256      642.053685
         1         2        20     1      121.254745      492.361151
         1         5         6     1      120.564919      663.113437
         1         5        10     1      118.281189      431.308051
         2         1         5     1      120.257889      537.525444
         2         1        31     1      121.917053      423.581575
         2         3         4     1      122.374893      712.688691
         2         3        32     1      118.470383      447.200912
         2        20        21     1      126.297546      421.362177
         2        20        39     1      115.426346      433.799388
         3         2        20     1      119.236755      541.059908
         3         4         6     1      118.324242      533.605977
         3         4        11     1      119.131897      475.525684
         4         3        32     1      118.727097      416.129049
         4         6         5     1      118.896408      693.886164
         4         6         7     1      120.424278      430.698927
         4        11        12     1      120.120895      502.301662
         4        11        14     1      120.185806      432.381919
         5         1        31     1      117.843239      439.647833
         5         6         7     1      120.208412      782.715594
         5        10         9     1      116.661819      559.934704
         6         4        11     1      122.579819      447.502792
         6         5        10     1      121.322975      705.924740
         6         7         8     1      117.611557      602.010986
         7         8         9     1      122.256546      732.863901
         7         8        33     1      117.339157      362.478902
         8         9        10     1      122.299545      738.442163
         8         9        34     1      120.145851      429.987304
         9         8        33     1      120.142014      430.475797
        10         9        34     1      117.380966      342.428057
        11        12        13     1      121.812767      680.777583
        11        12        35     1      118.681717      418.503617
        11        14        15     1      118.802269      690.612370
        11        14        37     1      120.042831      407.630235
        12        11        14     1      119.399063      643.948474
        12        13        16     1      119.062744      704.579382
        12        13        36     1      121.223717      422.429500
        13        12        35     1      119.575302      411.653287
        13        16        15     1      119.222397      604.738286
        13        16        17     1      125.503197      449.034891
        14        15        16     1      121.626930      663.777018
        14        15        19     1      129.212616      374.827882
        15        14        37     1      121.423294      396.758481
        15        16        17     1      115.123230      236.410636
        15        19        18     1       88.108376      396.150921
        16        13        36     1      119.498024      444.144886
        16        15        19     1      109.407913      167.360000
        16        17        18     1      110.666039      399.312671
        17        18        19     1      116.826759      167.360000
        17        18        38     1      123.752846      318.042735
        19        18        38     1      119.665749      326.161206
        20        21        22     1      121.389572      543.101089
        20        21        26     1      122.505417      578.362793
        21        20        39     1      114.551170      450.222622
        21        22        23     1      120.275772      760.585008
        21        22        27     1      121.663406      744.979280
        21        26        25     1      124.232620      770.104221
        21        26        42     1      119.153419      415.430290
        22        21        26     1      115.672928      673.644813
        22        23        24     1      118.684891      679.603897
        22        23        40     1      120.270653      343.599700
        22        27        28     1      107.938034      640.902216
        22        27        29     1      107.938034      640.902216
        22        27        30     1      103.486084      654.077513
        23        22        27     1      117.699501      539.880923
        23        24        25     1      122.754715      730.070077
        23        24        41     1      120.538696      415.343304
        24        23        40     1      121.212906      424.346412
        24        25        26     1      118.320412      693.264782
        25        24        41     1      116.530663      356.374383
        25        26        42     1      116.504784      340.209521
        27        30        43     1      107.672256      569.998368
        27        30        44     1      107.672256      569.998368
        27        30        45     1      107.672256      569.998368
        28        27        29     1      120.015259      741.792249
        28        27        30     1      107.539932      732.341412
        29        27        30     1      107.539932      732.341412
        43        30        44     1      111.147987      344.776258
        43        30        45     1      111.147987      344.776258
        44        30        45     1      111.147987      344.776258

[ dihedrals ] ; propers for gromacs 4.5 or higher, use funct 9
;       ai        aj        ak        al funct           phase               k        pn
         1         2         3         4     9        0.000000        0.162042         1
         1         2         3         4     9      180.000000       14.184693         2
         1         2         3         4     9        0.000000       -0.847330         3
         1         2         3         4     9      180.000000       -0.233245         4
         1         2         3        32     9        0.000000       -0.064753         1
         1         2         3        32     9      180.000000       11.935983         2
         1         2         3        32     9        0.000000       -0.432953         3
         1         2         3        32     9      180.000000        0.110544         4
         1         2        20        21     9        0.000000       -0.167870         1
         1         2        20        21     9      180.000000        3.526327         2
         1         2        20        21     9        0.000000       -0.356689         3
         1         2        20        21     9      180.000000        0.139573         4
         1         2        20        39     9        0.000000       -0.457732         1
         1         2        20        39     9      180.000000        3.512781         2
         1         2        20        39     9        0.000000       -0.099182         3
         1         2        20        39     9      180.000000        0.073474         4
         1         5         6         4     9        0.000000        0.138152         1
         1         5         6         4     9      180.000000       11.494951         2
         1         5         6         4     9        0.000000       -0.466829         3
         1         5         6         4     9      180.000000       -0.211783         4
         1         5         6         7     9        0.000000        0.340548         1
         1         5         6         7     9      180.000000       11.179590         2
         1         5         6         7     9        0.000000       -0.065208         3
         1         5         6         7     9      180.000000       -0.244500         4
         1         5        10         9     9        0.000000       -0.023334         1
         1         5        10         9     9      180.000000       18.424194         2
         1         5        10         9     9        0.000000        0.154347         3
         1         5        10         9     9      180.000000       -0.275637         4
         2         1         5         6     9        0.000000       -0.535156         1
         2         1         5         6     9      180.000000       13.643159         2
         2         1         5         6     9        0.000000       -0.954561         3
         2         1         5         6     9      180.000000       -0.185752         4
         2         1         5        10     9        0.000000       -0.306896         1
         2         1         5        10     9      180.000000       14.010283         2
         2         1         5        10     9        0.000000       -0.425194         3
         2         1         5        10     9      180.000000       -0.392179         4
         2         3         4         6     9        0.000000       -0.222219         1
         2         3         4         6     9      180.000000       19.346561         2
         2         3         4         6     9        0.000000       -1.541422         3
         2         3         4         6     9      180.000000       -0.303667         4
         2         3         4        11     9        0.000000        0.353286         1
         2         3         4        11     9      180.000000       19.215815         2
         2         3         4        11     9        0.000000        0.041767         3
         2         3         4        11     9      180.000000       -0.783127         4
         2        20        21        22     9        0.000000       -1.816149         1
         2        20        21        22     9      180.000000        4.619861         2
         2        20        21        22     9        0.000000       -0.590150         3
         2        20        21        22     9      180.000000        0.059912         4
         2        20        21        26     9        0.000000        1.786048         1
         2        20        21        26     9      180.000000        3.116501         2
         2        20        21        26     9        0.000000       -0.286578         3
         2        20        21        26     9      180.000000        0.145436         4
         3         2         1         5     9        0.000000       -0.172695         1
         3         2         1         5     9      180.000000       17.269977         2
         3         2         1         5     9        0.000000       -1.150046         3
         3         2         1         5     9      180.000000       -0.415713         4
         3         2         1        31     9        0.000000        0.057193         1
         3         2         1        31     9      180.000000       13.340746         2
         3         2         1        31     9        0.000000       -0.358398         3
         3         2         1        31     9      180.000000        0.131357         4
         3         2        20        21     9        0.000000       -0.235194         1
         3         2        20        21     9      180.000000        3.390104         2
         3         2        20        21     9        0.000000        0.020231         3
         3         2        20        21     9      180.000000        0.120802         4
         3         2        20        39     9        0.000000       -0.401551         1
         3         2        20        39     9      180.000000        3.316238         2
         3         2        20        39     9        0.000000        0.053714         3
         3         2        20        39     9      180.000000        0.093664         4
         3         4         6         5     9        0.000000       -0.422109         1
         3         4         6         5     9      180.000000       10.514136         2
         3         4         6         5     9        0.000000       -0.874544         3
         3         4         6         5     9      180.000000        0.049537         4
         3         4         6         7     9        0.000000        0.016853         1
         3         4         6         7     9      180.000000        9.617427         2
         3         4         6         7     9        0.000000       -0.297661         3
         3         4         6         7     9      180.000000       -0.083692         4
         3         4        11        12     9        0.000000       -0.324464         1
         3         4        11        12     9      180.000000        4.561519         2
         3         4        11        12     9        0.000000       -0.015540         3
         3         4        11        12     9      180.000000        0.640073         4
         3         4        11        14     9        0.000000       -0.158045         1
         3         4        11        14     9      180.000000        4.365125         2
         3         4        11        14     9        0.000000        0.142354         3
         3         4        11        14     9      180.000000        0.542351         4
         4         3         2        20     9        0.000000        0.202322         1
         4         3         2        20     9      180.000000       15.549690         2
         4         3         2        20     9        0.000000        0.092378         3
         4         3         2        20     9      180.000000       -0.436047         4
         4         6         5        10     9        0.000000       -0.325428         1
         4         6         5        10     9      180.000000       10.066007         2
         4         6         5        10     9        0.000000        0.084842         3
         4         6         5        10     9      180.000000       -0.271485         4
         4         6         7         8     9        0.000000        0.586013         1
         4         6         7         8     9      180.000000       16.427849         2
         4         6         7         8     9        0.000000        0.382180         3
         4         6         7         8     9      180.000000       -0.380091         4
         4        11        12        13     9        0.000000        0.347739         1
         4        11        12        13     9      180.000000       14.283483         2
         4        11        12        13     9        0.000000       -0.044248         3
         4        11        12        13     9      180.000000       -0.158975         4
         4        11        12        35     9        0.000000       -0.019610         1
         4        11        12        35     9      180.000000       12.720401         2
         4        11        12        35     9        0.000000       -0.189222         3
         4        11        12        35     9      180.000000        0.166533         4
         4        11        14        15     9        0.000000        0.145175         1
         4        11        14        15     9      180.000000       16.491205         2
         4        11        14        15     9        0.000000       -0.015455         3
         4        11        14        15     9      180.000000       -0.488038         4
         4        11        14        37     9        0.000000       -0.039200         1
         4        11        14        37     9      180.000000       12.976272         2
         4        11        14        37     9        0.000000       -0.184973         3
         4        11        14        37     9      180.000000        0.173953         4
         5         1         2        20     9        0.000000        0.246511         1
         5         1         2        20     9      180.000000       19.522849         2
         5         1         2        20     9        0.000000        0.055608         3
         5         1         2        20     9      180.000000       -0.772829         4
         5         6         4        11     9        0.000000        0.118291         1
         5         6         4        11     9      180.000000       12.532508         2
         5         6         4        11     9        0.000000       -0.020967         3
         5         6         4        11     9      180.000000       -0.418058         4
         5         6         7         8     9        0.000000        0.188120         1
         5         6         7         8     9      180.000000       16.793790         2
         5         6         7         8     9        0.000000       -0.050993         3
         5         6         7         8     9      180.000000       -0.239062         4
         5        10         9         8     9        0.000000       -0.161990         1
         5        10         9         8     9      180.000000       25.805864         2
         5        10         9         8     9        0.000000       -0.989158         3
         5        10         9         8     9      180.000000       -0.201960         4
         5        10         9        34     9        0.000000        0.808513         1
         5        10         9        34     9      180.000000       23.535886         2
         5        10         9        34     9        0.000000        0.064004         3
         5        10         9        34     9      180.000000       -0.475717         4
         6         4         3        32     9        0.000000        0.197186         1
         6         4         3        32     9      180.000000       15.643161         2
         6         4         3        32     9        0.000000       -0.344160         3
         6         4         3        32     9      180.000000        0.169722         4
         6         4        11        12     9        0.000000       -0.009760         1
         6         4        11        12     9      180.000000        4.176763         2
         6         4        11        12     9        0.000000       -0.032468         3
         6         4        11        12     9      180.000000        0.721945         4
         6         4        11        14     9        0.000000       -0.263932         1
         6         4        11        14     9      180.000000        4.137033         2
         6         4        11        14     9        0.000000       -0.184770         3
         6         4        11        14     9      180.000000        0.736064         4
         6         5         1        31     9        0.000000       -0.170721         1
         6         5         1        31     9      180.000000       10.545502         2
         6         5         1        31     9        0.000000       -0.262492         3
         6         5         1        31     9      180.000000       -0.003795         4
         6         5        10         9     9        0.000000       -0.107916         1
         6         5        10         9     9      180.000000       16.440884         2
         6         5        10         9     9        0.000000        0.043441         3
         6         5        10         9     9      180.000000       -0.231039         4
         6         7         8         9     9        0.000000        0.103245         1
         6         7         8         9     9      180.000000       25.050131         2
         6         7         8         9     9        0.000000       -0.948796         3
         6         7         8         9     9      180.000000       -0.159021         4
         6         7         8        33     9        0.000000        0.727425         1
         6         7         8        33     9      180.000000       22.903268         2
         6         7         8        33     9        0.000000        0.106514         3
         6         7         8        33     9      180.000000       -0.552430         4
         7         6         4        11     9        0.000000       -0.480257         1
         7         6         4        11     9      180.000000       12.329059         2
         7         6         4        11     9        0.000000       -0.151361         3
         7         6         4        11     9      180.000000       -0.448002         4
         7         6         5        10     9        0.000000        0.159900         1
         7         6         5        10     9      180.000000       11.086216         2
         7         6         5        10     9        0.000000        0.160518         3
         7         6         5        10     9      180.000000       -0.397158         4
         7         8         9        10     9        0.000000       -0.713203         1
         7         8         9        10     9      180.000000       11.742392         2
         7         8         9        10     9        0.000000       -0.552181         3
         7         8         9        10     9      180.000000       -0.521535         4
         7         8         9        34     9        0.000000       -0.026031         1
         7         8         9        34     9      180.000000        9.508286         2
         7         8         9        34     9        0.000000       -0.255749         3
         7         8         9        34     9      180.000000       -0.134502         4
        10         5         1        31     9        0.000000        0.016940         1
        10         5         1        31     9      180.000000       11.980067         2
        10         5         1        31     9        0.000000       -0.349905         3
        10         5         1        31     9      180.000000        0.012863         4
        10         9         8        33     9        0.000000       -0.199022         1
        10         9         8        33     9      180.000000        9.267615         2
        10         9         8        33     9        0.000000       -0.318099         3
        10         9         8        33     9      180.000000       -0.090079         4
        11         4         3        32     9        0.000000       -0.006695         1
        11         4         3        32     9      180.000000       14.793199         2
        11         4         3        32     9        0.000000       -0.149187         3
        11         4         3        32     9      180.000000        0.121786         4
        11        12        13        16     9        0.000000       -0.206278         1
        11        12        13        16     9      180.000000       20.406237         2
        11        12        13        16     9        0.000000       -1.603342         3
        11        12        13        16     9      180.000000       -0.550032         4
        11        12        13        36     9        0.000000       -0.086449         1
        11        12        13        36     9      180.000000       14.993175         2
        11        12        13        36     9        0.000000       -0.498902         3
        11        12        13        36     9      180.000000        0.122659         4
        11        14        15        16     9        0.000000       -0.048542         1
        11        14        15        16     9      180.000000       17.684724         2
        11        14        15        16     9        0.000000       -1.466103         3
        11        14        15        16     9      180.000000       -0.354957         4
        11        14        15        19     9        0.000000       -0.115647         1
        11        14        15        19     9      180.000000       13.920588         2
        11        14        15        19     9        0.000000       -0.420572         3
        11        14        15        19     9      180.000000       -0.256650         4
        12        11        14        15     9        0.000000       -0.238414         1
        12        11        14        15     9      180.000000       20.072657         2
        12        11        14        15     9        0.000000       -1.631145         3
        12        11        14        15     9      180.000000       -0.438820         4
        12        11        14        37     9        0.000000        0.072021         1
        12        11        14        37     9      180.000000       14.076835         2
        12        11        14        37     9        0.000000       -0.454985         3
        12        11        14        37     9      180.000000        0.103009         4
        12        13        16        15     9        0.000000       -0.302822         1
        12        13        16        15     9      180.000000       17.672254         2
        12        13        16        15     9        0.000000       -1.674967         3
        12        13        16        15     9      180.000000       -0.331683         4
        12        13        16        17     9        0.000000        0.095951         1
        12        13        16        17     9      180.000000       15.451938         2
        12        13        16        17     9        0.000000       -0.191505         3
        12        13        16        17     9      180.000000       -0.206026         4
        13        12        11        14     9        0.000000       -0.143765         1
        13        12        11        14     9      180.000000       17.553002         2
        13        12        11        14     9        0.000000       -1.246357         3
        13        12        11        14     9      180.000000       -0.307694         4
        13        16        15        14     9        0.000000        0.070488         1
        13        16        15        14     9      180.000000       12.139825         2
        13        16        15        14     9        0.000000       -1.300589         3
        13        16        15        14     9      180.000000       -0.110134         4
        13        16        15        19     9        0.000000        0.369723         1
        13        16        15        19     9      180.000000       12.483417         2
        13        16        15        19     9        0.000000       -0.881427         3
        13        16        15        19     9      180.000000       -0.226560         4
        13        16        17        18     9        0.000000        0.344008         1
        13        16        17        18     9      180.000000       11.950674         2
        13        16        17        18     9        0.000000        0.327736         3
        13        16        17        18     9      180.000000       -0.052182         4
        14        11        12        35     9        0.000000        0.047698         1
        14        11        12        35     9      180.000000       13.610511         2
        14        11        12        35     9        0.000000       -0.553585         3
        14        11        12        35     9      180.000000        0.147105         4
        14        15        16        17     9        0.000000        0.266108         1
        14        15        16        17     9      180.000000       12.905986         2
        14        15        16        17     9        0.000000       -1.233668         3
        14        15        16        17     9      180.000000       -0.071497         4
        14        15        19        18     9        0.000000        0.004503         1
        14        15        19        18     9      180.000000        4.776776         2
        14        15        19        18     9        0.000000       -0.283381         3
        14        15        19        18     9      180.000000        0.252265         4
        15        16        13        36     9        0.000000       -0.008959         1
        15        16        13        36     9      180.000000       12.832775         2
        15        16        13        36     9        0.000000       -0.362500         3
        15        16        13        36     9      180.000000       -0.080759         4
        15        16        17        18     9        0.000000       -0.011851         1
        15        16        17        18     9      180.000000       22.136398         2
        15        16        17        18     9        0.000000       -2.903116         3
        15        16        17        18     9      180.000000        0.152602         4
        15        19        18        17     9        0.000000       -0.387047         1
        15        19        18        17     9      180.000000       31.091115         2
        15        19        18        17     9        0.000000       -5.669714         3
        15        19        18        17     9      180.000000       -0.734818         4
        15        19        18        38     9        0.000000        3.035310         1
        15        19        18        38     9      180.000000       17.237730         2
        15        19        18        38     9        0.000000        0.044559         3
        15        19        18        38     9      180.000000       -0.522176         4
        16        13        12        35     9        0.000000        0.102869         1
        16        13        12        35     9      180.000000       16.065364         2
        16        13        12        35     9        0.000000       -0.402009         3
        16        13        12        35     9      180.000000       -0.022621         4
        16        15        14        37     9        0.000000        0.262381         1
        16        15        14        37     9      180.000000       12.606974         2
        16        15        14        37     9        0.000000       -0.201918         3
        16        15        14        37     9      180.000000        0.062536         4
        16        15        19        18     9        0.000000       -0.261018         1
        16        15        19        18     9      180.000000       20.980168         2
        16        15        19        18     9        0.000000       -5.410941         3
        16        15        19        18     9      180.000000        0.255286         4
        16        17        18        19     9        0.000000       -0.626517         1
        16        17        18        19     9      180.000000       33.786621         2
        16        17        18        19     9        0.000000       -2.749275         3
        16        17        18        19     9      180.000000       -0.271184         4
        16        17        18        38     9        0.000000        1.520127         1
        16        17        18        38     9      180.000000       28.275928         2
        16        17        18        38     9        0.000000        0.934201         3
        16        17        18        38     9      180.000000       -0.492077         4
        17        16        13        36     9        0.000000        0.037495         1
        17        16        13        36     9      180.000000       12.818602         2
        17        16        13        36     9        0.000000       -0.150880         3
        17        16        13        36     9      180.000000        0.025068         4
        17        16        15        19     9        0.000000       -0.259581         1
        17        16        15        19     9      180.000000       17.610043         2
        17        16        15        19     9        0.000000       -2.793174         3
        17        16        15        19     9      180.000000       -0.504981         4
        19        15        14        37     9        0.000000       -0.062564         1
        19        15        14        37     9      180.000000       10.723148         2
        19        15        14        37     9        0.000000       -0.064585         3
        19        15        14        37     9      180.000000        0.028315         4
        20         2         1        31     9        0.000000       -0.006423         1
        20         2         1        31     9      180.000000       15.238161         2
        20         2         1        31     9        0.000000       -0.072527         3
        20         2         1        31     9      180.000000        0.161232         4
        20         2         3        32     9        0.000000       -0.058685         1
        20         2         3        32     9      180.000000       14.053045         2
        20         2         3        32     9        0.000000       -0.041462         3
        20         2         3        32     9      180.000000        0.138031         4
        20        21        22        23     9        0.000000        0.142200         1
        20        21        22        23     9      180.000000       15.897986         2
        20        21        22        23     9        0.000000        0.030266         3
        20        21        22        23     9      180.000000       -0.460852         4
        20        21        22        27     9        0.000000       -0.927876         1
        20        21        22        27     9      180.000000       13.516794         2
        20        21        22        27     9        0.000000       -0.073923         3
        20        21        22        27     9      180.000000       -0.622706         4
        20        21        26        25     9        0.000000        0.186749         1
        20        21        26        25     9      180.000000       16.683917         2
        20        21        26        25     9        0.000000        0.179116         3
        20        21        26        25     9      180.000000       -0.684725         4
        20        21        26        42     9        0.000000       -0.299543         1
        20        21        26        42     9      180.000000       14.371221         2
        20        21        26        42     9        0.000000       -0.253274         3
        20        21        26        42     9      180.000000        0.145399         4
        21        22        23        24     9        0.000000       -0.049558         1
        21        22        23        24     9      180.000000       18.886871         2
        21        22        23        24     9        0.000000       -2.021566         3
        21        22        23        24     9      180.000000       -0.405199         4
        21        22        23        40     9        0.000000        0.229105         1
        21        22        23        40     9      180.000000       14.976778         2
        21        22        23        40     9        0.000000       -0.507226         3
        21        22        23        40     9      180.000000        0.085320         4
        21        22        27        28     9        0.000000       -1.334283         1
        21        22        27        28     9      180.000000        0.814377         2
        21        22        27        28     9        0.000000        0.785313         3
        21        22        27        28     9      180.000000       -0.187783         4
        21        22        27        29     9        0.000000       -1.334283         1
        21        22        27        29     9      180.000000        0.814377         2
        21        22        27        29     9        0.000000        0.785313         3
        21        22        27        29     9      180.000000       -0.187783         4
        21        22        27        30     9        0.000000        3.729087         1
        21        22        27        30     9      180.000000       -2.195929         2
        21        22        27        30     9        0.000000        0.799428         3
        21        22        27        30     9      180.000000        0.054292         4
        21        26        25        24     9        0.000000        0.319721         1
        21        26        25        24     9      180.000000       22.949103         2
        21        26        25        24     9        0.000000       -0.741215         3
        21        26        25        24     9      180.000000        0.175924         4
        22        21        20        39     9        0.000000        2.440460         1
        22        21        20        39     9      180.000000        3.205589         2
        22        21        20        39     9        0.000000       -0.727467         3
        22        21        20        39     9      180.000000        0.027702         4
        22        21        26        25     9        0.000000       -0.510165         1
        22        21        26        25     9      180.000000       14.375533         2
        22        21        26        25     9        0.000000       -0.595359         3
        22        21        26        25     9      180.000000       -0.489937         4
        22        21        26        42     9        0.000000        0.058995         1
        22        21        26        42     9      180.000000       12.296400         2
        22        21        26        42     9        0.000000       -0.329284         3
        22        21        26        42     9      180.000000        0.069067         4
        22        23        24        25     9        0.000000       -0.220827         1
        22        23        24        25     9      180.000000       18.549632         2
        22        23        24        25     9        0.000000       -1.222990         3
        22        23        24        25     9      180.000000       -0.581963         4
        22        23        24        41     9        0.000000        0.008007         1
        22        23        24        41     9      180.000000       14.871302         2
        22        23        24        41     9        0.000000       -0.365301         3
        22        23        24        41     9      180.000000       -0.122426         4
        22        27        30        43     9        0.000000        0.134670         1
        22        27        30        43     9      180.000000       -0.180389         2
        22        27        30        43     9        0.000000        0.326690         3
        22        27        30        43     9      180.000000       -0.016353         4
        22        27        30        44     9        0.000000        0.134670         1
        22        27        30        44     9      180.000000       -0.180389         2
        22        27        30        44     9        0.000000        0.326690         3
        22        27        30        44     9      180.000000       -0.016353         4
        22        27        30        45     9        0.000000        0.134670         1
        22        27        30        45     9      180.000000       -0.180389         2
        22        27        30        45     9        0.000000        0.326690         3
        22        27        30        45     9      180.000000       -0.016353         4
        23        22        21        26     9        0.000000       -0.037262         1
        23        22        21        26     9      180.000000       14.380148         2
        23        22        21        26     9        0.000000       -0.900345         3
        23        22        21        26     9      180.000000       -0.221953         4
        23        22        27        28     9        0.000000       -0.090526         1
        23        22        27        28     9      180.000000        0.655865         2
        23        22        27        28     9        0.000000       -0.321289         3
        23        22        27        28     9      180.000000       -0.045697         4
        23        22        27        29     9        0.000000       -0.090526         1
        23        22        27        29     9      180.000000        0.655865         2
        23        22        27        29     9        0.000000       -0.321289         3
        23        22        27        29     9      180.000000       -0.045697         4
        23        22        27        30     9        0.000000        0.119865         1
        23        22        27        30     9      180.000000       -0.559450         2
        23        22        27        30     9        0.000000       -0.551232         3
        23        22        27        30     9      180.000000        0.255504         4
        23        24        25        26     9        0.000000        0.177564         1
        23        24        25        26     9      180.000000       22.523858         2
        23        24        25        26     9        0.000000       -0.901753         3
        23        24        25        26     9      180.000000       -0.193725         4
        24        23        22        27     9        0.000000        0.192523         1
        24        23        22        27     9      180.000000       13.995355         2
        24        23        22        27     9        0.000000        0.189775         3
        24        23        22        27     9      180.000000       -0.443899         4
        24        25        26        42     9        0.000000        1.115356         1
        24        25        26        42     9      180.000000       20.962220         2
        24        25        26        42     9        0.000000        0.247396         3
        24        25        26        42     9      180.000000       -0.016301         4
        25        24        23        40     9        0.000000        0.066372         1
        25        24        23        40     9      180.000000       14.573594         2
        25        24        23        40     9        0.000000       -0.318036         3
        25        24        23        40     9      180.000000       -0.017204         4
        26        21        20        39     9        0.000000       -1.272590         1
        26        21        20        39     9      180.000000        2.989698         2
        26        21        20        39     9        0.000000       -0.423807         3
        26        21        20        39     9      180.000000        0.040258         4
        26        21        22        27     9        0.000000        0.366400         1
        26        21        22        27     9      180.000000       11.025740         2
        26        21        22        27     9        0.000000        0.150288         3
        26        21        22        27     9      180.000000       -0.363523         4
        26        25        24        41     9        0.000000        0.988693         1
        26        25        24        41     9      180.000000       20.417146         2
        26        25        24        41     9        0.000000        0.253449         3
        26        25        24        41     9      180.000000       -0.430136         4
        27        22        23        40     9        0.000000       -0.032266         1
        27        22        23        40     9      180.000000       12.082714         2
        27        22        23        40     9        0.000000       -0.269977         3
        27        22        23        40     9      180.000000        0.014566         4
        28        27        30        43     9        0.000000       -0.020339         1
        28        27        30        43     9      180.000000       -0.042566         2
        28        27        30        43     9        0.000000        0.357266         3
        28        27        30        43     9      180.000000        0.004050         4
        28        27        30        44     9        0.000000       -0.020339         1
        28        27        30        44     9      180.000000       -0.042566         2
        28        27        30        44     9        0.000000        0.357266         3
        28        27        30        44     9      180.000000        0.004050         4
        28        27        30        45     9        0.000000       -0.020339         1
        28        27        30        45     9      180.000000       -0.042566         2
        28        27        30        45     9        0.000000        0.357266         3
        28        27        30        45     9      180.000000        0.004050         4
        29        27        30        43     9        0.000000       -0.020339         1
        29        27        30        43     9      180.000000       -0.042566         2
        29        27        30        43     9        0.000000        0.357266         3
        29        27        30        43     9      180.000000        0.004050         4
        29        27        30        44     9        0.000000       -0.020339         1
        29        27        30        44     9      180.000000       -0.042566         2
        29        27        30        44     9        0.000000        0.357266         3
        29        27        30        44     9      180.000000        0.004050         4
        29        27        30        45     9        0.000000       -0.020339         1
        29        27        30        45     9      180.000000       -0.042566         2
        29        27        30        45     9        0.000000        0.357266         3
        29        27        30        45     9      180.000000        0.004050         4
        33         8         9        34     9        0.000000       -0.431715         1
        33         8         9        34     9      180.000000        6.869070         2
        33         8         9        34     9        0.000000       -0.569257         3
        33         8         9        34     9      180.000000        0.186659         4
        35        12        13        36     9        0.000000       -0.135492         1
        35        12        13        36     9      180.000000       12.586713         2
        35        12        13        36     9        0.000000       -0.733899         3
        35        12        13        36     9      180.000000        0.316955         4
        40        23        24        41     9        0.000000       -0.049751         1
        40        23        24        41     9      180.000000       11.944936         2
        40        23        24        41     9        0.000000       -0.710211         3
        40        23        24        41     9      180.000000        0.205813         4

[ dihedrals ] ; impropers
;       ai        aj        ak        al funct           phase               k        pn
         4         3         6        11     4      180.000000        0.156464         2
         4         6        11         3     4      180.000000        0.156464         2
         4        11         3         6     4      180.000000        0.156464         2
         8         7         9        33     4      180.000000        4.409855         2
         8         9        33         7     4      180.000000        4.409855         2
         8        33         7         9     4      180.000000        4.409855         2
         9         8        10        34     4      180.000000        4.162411         2
         9        10        34         8     4      180.000000        4.162411         2
         9        34         8        10     4      180.000000        4.162411         2
        18        17        19        38     4      180.000000        5.465041         2
        18        19        38        17     4      180.000000        5.465041         2
        18        38        17        19     4      180.000000        5.465041         2
        24        23        25        41     4      180.000000        3.347114         2
        24        25        41        23     4      180.000000        3.347114         2
        24        41        23        25     4      180.000000        3.347114         2
        26        21        25        42     4      180.000000        3.547247         2
        26        25        42        21     4      180.000000        3.547247         2
        26        42        21        25     4      180.000000        3.547247         2

[ pairs ]
;       ai        aj funct
         1         4     1
         1         7     1
         1         9     1
         1        21     1
         1        32     1
         1        39     1
         2         6     1
         2        10     1
         2        11     1
         2        22     1
         2        26     1
         3         5     1
         3         7     1
         3        12     1
         3        14     1
         3        21     1
         3        31     1
         3        39     1
         4         8     1
         4        10     1
         4        13     1
         4        15     1
         4        20     1
         4        35     1
         4        37     1
         5         8     1
         5        11     1
         5        20     1
         5        34     1
         6         9     1
         6        12     1
         6        14     1
         6        31     1
         6        32     1
         6        33     1
         7        10     1
         7        11     1
         7        34     1
        10        31     1
        10        33     1
        11        16     1
        11        19     1
        11        32     1
        11        36     1
        12        15     1
        12        17     1
        12        37     1
        13        14     1
        13        18     1
        13        19     1
        14        17     1
        14        18     1
        14        35     1
        15        36     1
        15        38     1
        16        35     1
        16        37     1
        16        38     1
        17        36     1
        19        37     1
        20        23     1
        20        25     1
        20        27     1
        20        31     1
        20        32     1
        20        42     1
        21        24     1
        21        28     1
        21        29     1
        21        30     1
        21        40     1
        22        25     1
        22        39     1
        22        41     1
        22        42     1
        22        43     1
        22        44     1
        22        45     1
        23        26     1
        23        28     1
        23        29     1
        23        30     1
        24        27     1
        24        42     1
        25        40     1
        26        27     1
        26        39     1
        26        41     1
        27        40     1
        28        43     1
        28        44     1
        28        45     1
        29        43     1
        29        44     1
        29        45     1
        33        34     1
        35        36     1
        40        41     1
