; ITP file created by ByteFF-ML, 2026-02-21 07:45:31.143921

[ atomtypes ]
;name           bonded.type        at.num        mass        charge   ptype           sigma         epsilon
 c0bf                                   6      0.0000       0.00000       A     3.31138e-01     4.10661e-01
 c1bf                                   6      0.0000       0.00000       A     3.31696e-01     4.13508e-01
 c2bf                                   6      0.0000       0.00000       A     3.31534e-01     4.11219e-01
 c3bf                                   6      0.0000       0.00000       A     3.31588e-01     4.14304e-01
 c4bf                                   6      0.0000       0.00000       A     3.31387e-01     4.12836e-01
 c5bf                                   6      0.0000       0.00000       A     3.31581e-01     4.11588e-01
 n6bf                                   7      0.0000       0.00000       A     3.38246e-01     3.93082e-01
 c7bf                                   6      0.0000       0.00000       A     3.31514e-01     4.13144e-01
 c8bf                                   6      0.0000       0.00000       A     3.31562e-01     4.13392e-01
 n9bf                                   7      0.0000       0.00000       A     3.38456e-01     3.92772e-01
 c10bf                                  6      0.0000       0.00000       A     3.31399e-01     4.11122e-01
 c11bf                                  6      0.0000       0.00000       A     3.31466e-01     4.13431e-01
 c12bf                                  6      0.0000       0.00000       A     3.31367e-01     4.12488e-01
 c13bf                                  6      0.0000       0.00000       A     3.31521e-01     4.14214e-01
 n14bf                                  7      0.0000       0.00000       A     3.27929e-01     6.45227e-01
 c15bf                                  6      0.0000       0.00000       A     3.31581e-01     4.12886e-01
 c16bf                                  6      0.0000       0.00000       A     3.31706e-01     4.11679e-01
 n17bf                                  7      0.0000       0.00000       A     3.38344e-01     3.92967e-01
 c18bf                                  6      0.0000       0.00000       A     3.31482e-01     4.12140e-01
 c19bf                                  6      0.0000       0.00000       A     3.31194e-01     4.12903e-01
 c20bf                                  6      0.0000       0.00000       A     3.31298e-01     4.15822e-01
 s21bf                                 16      0.0000       0.00000       A     4.05645e-01     2.55727e-01
 o22bf                                  8      0.0000       0.00000       A     3.04857e-01     6.11370e-01
 o23bf                                  8      0.0000       0.00000       A     3.04857e-01     6.11370e-01
 c24bf                                  6      0.0000       0.00000       A     3.39611e-01     4.49156e-01
 c25bf                                  6      0.0000       0.00000       A     3.31514e-01     4.13684e-01
 c26bf                                  6      0.0000       0.00000       A     3.31473e-01     4.13309e-01
 s27bf                                 16      0.0000       0.00000       A     3.53376e-01     1.18093e+00
 c28bf                                  6      0.0000       0.00000       A     3.31712e-01     4.09768e-01
 n29bf                                  7      0.0000       0.00000       A     3.38474e-01     3.92767e-01
 n30bf                                  7      0.0000       0.00000       A     3.37184e-01     4.66587e-01
 h31bf                                  1      0.0000       0.00000       A     2.62399e-01     6.76733e-02
 h32bf                                  1      0.0000       0.00000       A     2.62381e-01     6.75967e-02
 h33bf                                  1      0.0000       0.00000       A     2.53506e-01     6.72855e-02
 h34bf                                  1      0.0000       0.00000       A     2.53506e-01     6.72855e-02
 h35bf                                  1      0.0000       0.00000       A     2.62523e-01     6.73286e-02
 h36bf                                  1      0.0000       0.00000       A     2.62459e-01     6.71211e-02
 h37bf                                  1      0.0000       0.00000       A     2.62358e-01     6.73509e-02
 h38bf                                  1      0.0000       0.00000       A     1.10952e-01     4.04428e-02
 h39bf                                  1      0.0000       0.00000       A     2.53583e-01     6.80915e-02
 h40bf                                  1      0.0000       0.00000       A     2.53644e-01     6.69998e-02
 h41bf                                  1      0.0000       0.00000       A     2.62744e-01     6.79622e-02
 h42bf                                  1      0.0000       0.00000       A     2.42021e-01     8.71597e-02
 h43bf                                  1      0.0000       0.00000       A     2.42021e-01     8.71597e-02
 h44bf                                  1      0.0000       0.00000       A     2.42021e-01     8.71597e-02
 h45bf                                  1      0.0000       0.00000       A     1.10371e-01     3.94708e-02
 h46bf                                  1      0.0000       0.00000       A     1.10371e-01     3.94708e-02

[ moleculetype ]
;name             nrexcl
 67_flip               3

[ atoms ]
;       nr            type      resi   res      atom      cgnr      charge          mass ; qtot
         1            c0bf         1   UNL        c0         1     0.02441       12.0110 ; qtot    0.024
         2            c1bf         1   UNL        c1         2    -0.14199       12.0110 ; qtot   -0.118
         3            c2bf         1   UNL        c2         3     0.30813       12.0110 ; qtot    0.191
         4            c3bf         1   UNL        c3         4    -0.13090       12.0110 ; qtot    0.060
         5            c4bf         1   UNL        c4         5     0.25847       12.0110 ; qtot    0.318
         6            c5bf         1   UNL        c5         6     0.21971       12.0110 ; qtot    0.538
         7            n6bf         1   UNL        n6         7    -0.62228       14.0070 ; qtot   -0.084
         8            c7bf         1   UNL        c7         8     0.29317       12.0110 ; qtot    0.209
         9            c8bf         1   UNL        c8         9     0.29405       12.0110 ; qtot    0.503
        10            n9bf         1   UNL        n9        10    -0.62285       14.0070 ; qtot   -0.120
        11           c10bf         1   UNL       c10        11    -0.03675       12.0110 ; qtot   -0.157
        12           c11bf         1   UNL       c11        12    -0.07932       12.0110 ; qtot   -0.236
        13           c12bf         1   UNL       c12        13    -0.07309       12.0110 ; qtot   -0.309
        14           c13bf         1   UNL       c13        14    -0.04460       12.0110 ; qtot   -0.354
        15           n14bf         1   UNL       n14        15    -0.96404       14.0070 ; qtot   -1.318
        16           c15bf         1   UNL       c15        16     0.35358       12.0110 ; qtot   -0.964
        17           c16bf         1   UNL       c16        17     0.27846       12.0110 ; qtot   -0.686
        18           n17bf         1   UNL       n17        18    -0.60355       14.0070 ; qtot   -1.289
        19           c18bf         1   UNL       c18        19     0.28639       12.0110 ; qtot   -1.003
        20           c19bf         1   UNL       c19        20    -0.03902       12.0110 ; qtot   -1.042
        21           c20bf         1   UNL       c20        21    -0.27733       12.0110 ; qtot   -1.319
        22           s21bf         1   UNL       s21        22     0.99436       32.0670 ; qtot   -0.325
        23           o22bf         1   UNL       o22        23    -0.51400       15.9990 ; qtot   -0.839
        24           o23bf         1   UNL       o23        24    -0.51400       15.9990 ; qtot   -1.353
        25           c24bf         1   UNL       c24        25    -0.29607       12.0110 ; qtot   -1.649
        26           c25bf         1   UNL       c25        26     0.13403       12.0110 ; qtot   -1.515
        27           c26bf         1   UNL       c26        27    -0.17096       12.0110 ; qtot   -1.686
        28           s27bf         1   UNL       s27        28    -0.03876       32.0670 ; qtot   -1.725
        29           c28bf         1   UNL       c28        29     0.60300       12.0110 ; qtot   -1.122
        30           n29bf         1   UNL       n29        30    -0.61333       14.0070 ; qtot   -1.735
        31           n30bf         1   UNL       n30        31    -0.97864       14.0070 ; qtot   -2.714
        32           h31bf         1   UNL       h31        32     0.14328        1.0080 ; qtot   -2.570
        33           h32bf         1   UNL       h32        33     0.12730        1.0080 ; qtot   -2.443
        34           h33bf         1   UNL       h33        34     0.03158        1.0080 ; qtot   -2.412
        35           h34bf         1   UNL       h34        35     0.03160        1.0080 ; qtot   -2.380
        36           h35bf         1   UNL       h35        36     0.12354        1.0080 ; qtot   -2.256
        37           h36bf         1   UNL       h36        37     0.12643        1.0080 ; qtot   -2.130
        38           h37bf         1   UNL       h37        38     0.13963        1.0080 ; qtot   -1.990
        39           h38bf         1   UNL       h38        39     0.51181        1.0080 ; qtot   -1.479
        40           h39bf         1   UNL       h39        40     0.03589        1.0080 ; qtot   -1.443
        41           h40bf         1   UNL       h40        41     0.03700        1.0080 ; qtot   -1.406
        42           h41bf         1   UNL       h41        42     0.15079        1.0080 ; qtot   -1.255
        43           h42bf         1   UNL       h42        43     0.10467        1.0080 ; qtot   -1.150
        44           h43bf         1   UNL       h43        44     0.10467        1.0080 ; qtot   -1.046
        45           h44bf         1   UNL       h44        45     0.10467        1.0080 ; qtot   -0.941
        46           h45bf         1   UNL       h45        46     0.47045        1.0080 ; qtot   -0.470
        47           h46bf         1   UNL       h46        47     0.47041        1.0080 ; qtot   -0.000

[ bonds ]
;       ai        aj funct               r               k
         1         4     1        0.138617   330849.365869
         1         6     1        0.143450   236938.638037
         1        11     1        0.148463   213076.635352
         2         3     1        0.138622   325678.790723
         2         5     1        0.141521   284459.010498
         2        32     1        0.108434   324306.120020
         3         4     1        0.142346   251378.111328
         3        15     1        0.140593   260287.089453
         4        33     1        0.108420   321509.091504
         5         6     1        0.143386   223579.461084
         5        10     1        0.136675   270922.835840
         6         7     1        0.136378   268382.250977
         7         8     1        0.131881   374103.202393
         8         9     1        0.142216   238192.510107
         8        34     1        0.108820   315940.162988
         9        10     1        0.131846   380187.239941
         9        35     1        0.108836   315483.763770
        11        12     1        0.141439   268733.743750
        11        14     1        0.139969   293599.508057
        12        13     1        0.139454   318479.956201
        12        36     1        0.108494   321767.092920
        13        27     1        0.139607   310583.371240
        13        37     1        0.108604   319689.393701
        14        26     1        0.140140   299069.786719
        14        38     1        0.108424   324411.996875
        15        16     1        0.138908   287909.073975
        15        39     1        0.101485   406811.259766
        16        17     1        0.141520   257222.712939
        16        21     1        0.141314   265581.366357
        17        18     1        0.133244   341315.137256
        17        40     1        0.108642   319937.154736
        18        19     1        0.133977   313656.558057
        19        20     1        0.139506   299656.731641
        19        41     1        0.108702   319547.177539
        20        21     1        0.139402   313134.068799
        20        42     1        0.108446   326160.114160
        21        22     1        0.180715   124483.627490
        22        23     1        0.147464   495020.215039
        22        24     1        0.147464   495020.215039
        22        25     1        0.180772   140787.539600
        25        43     1        0.109028   319230.108789
        25        44     1        0.109028   319230.108789
        25        45     1        0.109028   319230.108789
        26        27     1        0.141686   246367.653857
        26        30     1        0.139021   242055.380957
        27        28     1        0.176243   144132.530640
        28        29     1        0.178495   103465.673523
        29        30     1        0.129787   420547.415527
        29        31     1        0.137717   325236.053857
        31        46     1        0.101314   419979.087158
        31        47     1        0.101314   419979.087158

[ angles ]
;       ai        aj        ak funct           theta             cth
         1         4         3     1      122.418068      713.462784
         1         4        33     1      118.676208      416.104310
         1         6         5     1      118.954453      696.915057
         1         6         7     1      120.399147      430.458048
         1        11        12     1      120.110229      499.265651
         1        11        14     1      120.310448      433.980382
         2         3         4     1      119.340256      642.053685
         2         3        15     1      121.254745      492.361087
         2         5         6     1      120.564919      663.113437
         2         5        10     1      118.281189      431.308051
         3         2         5     1      120.257889      537.525444
         3         2        32     1      121.917053      423.581575
         3         4        33     1      118.470383      447.200848
         3        15        16     1      126.297546      421.362209
         3        15        39     1      115.426346      433.799388
         4         1         6     1      118.276855      534.364269
         4         1        11     1      119.087196      474.907175
         4         3        15     1      119.236771      541.059908
         5         2        32     1      117.843239      439.647833
         5         6         7     1      120.208412      782.715594
         5        10         9     1      116.661819      559.934704
         6         1        11     1      122.609436      446.308134
         6         5        10     1      121.322975      705.924740
         6         7         8     1      117.611557      602.010986
         7         8         9     1      122.256546      732.863901
         7         8        34     1      117.339157      362.478902
         8         9        10     1      122.299545      738.442163
         8         9        35     1      120.145851      429.987304
         9         8        34     1      120.142014      430.475797
        10         9        35     1      117.380966      342.428057
        11        12        13     1      121.678978      663.548653
        11        12        36     1      119.042648      413.852958
        11        14        26     1      119.927528      717.524334
        11        14        38     1      120.856308      404.659886
        12        11        14     1      119.462936      665.474278
        12        13        27     1      118.411453      724.906410
        12        13        37     1      120.303528      434.705795
        13        12        36     1      119.421097      407.382014
        13        27        26     1      121.156631      636.933686
        13        27        28     1      129.118195      374.540110
        14        26        27     1      119.461121      662.716207
        14        26        30     1      124.953323      415.462402
        15        16        17     1      122.505417      578.362793
        15        16        21     1      121.389572      543.101089
        16        15        39     1      114.551170      450.222622
        16        17        18     1      124.232620      770.104221
        16        17        40     1      119.153419      415.430290
        16        21        20     1      120.275772      760.585008
        16        21        22     1      121.663406      744.979280
        17        16        21     1      115.672928      673.644813
        17        18        19     1      118.320412      693.264846
        18        17        40     1      116.504784      340.209553
        18        19        20     1      122.754715      730.070077
        18        19        41     1      116.530663      356.374383
        19        20        21     1      118.684891      679.603961
        19        20        42     1      121.212906      424.346476
        20        19        41     1      120.538696      415.343272
        20        21        22     1      117.699501      539.880923
        21        20        42     1      120.270653      343.599700
        21        22        23     1      107.938034      640.902280
        21        22        24     1      107.938034      640.902280
        21        22        25     1      103.486084      654.077513
        22        25        43     1      107.672241      569.998432
        22        25        44     1      107.672241      569.998432
        22        25        45     1      107.672256      569.998432
        23        22        24     1      120.015259      741.792249
        23        22        25     1      107.539932      732.341476
        24        22        25     1      107.539932      732.341476
        26        14        38     1      119.189453      437.537191
        26        27        28     1      109.617722      167.360000
        26        30        29     1      110.724747      406.245804
        27        13        37     1      121.426270      432.779436
        27        26        30     1      115.462082      224.420708
        27        28        29     1       88.191994      570.217477
        28        29        30     1      116.516800      167.360000
        28        29        31     1      119.573158      535.485763
        29        31        46     1      114.789261      488.578020
        29        31        47     1      114.789261      488.578020
        30        29        31     1      123.899948      541.633280
        43        25        44     1      111.147987      344.776258
        43        25        45     1      111.147987      344.776258
        44        25        45     1      111.147987      344.776258
        46        31        47     1      114.220871      350.789258

[ dihedrals ] ; propers for gromacs 4.5 or higher, use funct 9
;       ai        aj        ak        al funct           phase               k        pn
         1         4         3         2     9        0.000000        0.165378         1
         1         4         3         2     9      180.000000       14.081412         2
         1         4         3         2     9        0.000000       -0.817257         3
         1         4         3         2     9      180.000000       -0.234038         4
         1         4         3        15     9        0.000000        0.205162         1
         1         4         3        15     9      180.000000       15.496285         2
         1         4         3        15     9        0.000000        0.105489         3
         1         4         3        15     9      180.000000       -0.437969         4
         1         6         5         2     9        0.000000        0.152887         1
         1         6         5         2     9      180.000000       11.438949         2
         1         6         5         2     9        0.000000       -0.458058         3
         1         6         5         2     9      180.000000       -0.209775         4
         1         6         5        10     9        0.000000       -0.272759         1
         1         6         5        10     9      180.000000       10.217843         2
         1         6         5        10     9        0.000000        0.088608         3
         1         6         5        10     9      180.000000       -0.279213         4
         1         6         7         8     9        0.000000        0.610213         1
         1         6         7         8     9      180.000000       16.345357         2
         1         6         7         8     9        0.000000        0.391808         3
         1         6         7         8     9      180.000000       -0.379231         4
         1        11        12        13     9        0.000000        0.275008         1
         1        11        12        13     9      180.000000       14.610543         2
         1        11        12        13     9        0.000000       -0.098050         3
         1        11        12        13     9      180.000000       -0.139134         4
         1        11        12        36     9        0.000000       -0.007045         1
         1        11        12        36     9      180.000000       12.733529         2
         1        11        12        36     9        0.000000       -0.200380         3
         1        11        12        36     9      180.000000        0.177317         4
         1        11        14        26     9        0.000000        0.254338         1
         1        11        14        26     9      180.000000       17.301324         2
         1        11        14        26     9        0.000000        0.045180         3
         1        11        14        26     9      180.000000       -0.571468         4
         1        11        14        38     9        0.000000       -0.049196         1
         1        11        14        38     9      180.000000       13.064995         2
         1        11        14        38     9        0.000000       -0.188786         3
         1        11        14        38     9      180.000000        0.221382         4
         2         3         4        33     9        0.000000       -0.064754         1
         2         3         4        33     9      180.000000       11.935983         2
         2         3         4        33     9        0.000000       -0.432953         3
         2         3         4        33     9      180.000000        0.110544         4
         2         3        15        16     9        0.000000       -0.167871         1
         2         3        15        16     9      180.000000        3.526327         2
         2         3        15        16     9        0.000000       -0.356690         3
         2         3        15        16     9      180.000000        0.139573         4
         2         3        15        39     9        0.000000       -0.457731         1
         2         3        15        39     9      180.000000        3.512782         2
         2         3        15        39     9        0.000000       -0.099182         3
         2         3        15        39     9      180.000000        0.073474         4
         2         5         6         7     9        0.000000        0.340548         1
         2         5         6         7     9      180.000000       11.179590         2
         2         5         6         7     9        0.000000       -0.065208         3
         2         5         6         7     9      180.000000       -0.244500         4
         2         5        10         9     9        0.000000       -0.023334         1
         2         5        10         9     9      180.000000       18.424194         2
         2         5        10         9     9        0.000000        0.154347         3
         2         5        10         9     9      180.000000       -0.275637         4
         3         2         5         6     9        0.000000       -0.535157         1
         3         2         5         6     9      180.000000       13.643161         2
         3         2         5         6     9        0.000000       -0.954560         3
         3         2         5         6     9      180.000000       -0.185752         4
         3         2         5        10     9        0.000000       -0.306896         1
         3         2         5        10     9      180.000000       14.010283         2
         3         2         5        10     9        0.000000       -0.425194         3
         3         2         5        10     9      180.000000       -0.392180         4
         3         4         1         6     9        0.000000       -0.226879         1
         3         4         1         6     9      180.000000       19.381293         2
         3         4         1         6     9        0.000000       -1.550707         3
         3         4         1         6     9      180.000000       -0.316525         4
         3         4         1        11     9        0.000000        0.374526         1
         3         4         1        11     9      180.000000       19.257891         2
         3         4         1        11     9        0.000000        0.066428         3
         3         4         1        11     9      180.000000       -0.783800         4
         3        15        16        17     9        0.000000        1.786047         1
         3        15        16        17     9      180.000000        3.116500         2
         3        15        16        17     9        0.000000       -0.286577         3
         3        15        16        17     9      180.000000        0.145436         4
         3        15        16        21     9        0.000000       -1.816149         1
         3        15        16        21     9      180.000000        4.619862         2
         3        15        16        21     9        0.000000       -0.590150         3
         3        15        16        21     9      180.000000        0.059912         4
         4         1         6         5     9        0.000000       -0.398877         1
         4         1         6         5     9      180.000000       10.559723         2
         4         1         6         5     9        0.000000       -0.860770         3
         4         1         6         5     9      180.000000        0.041650         4
         4         1         6         7     9        0.000000        0.022179         1
         4         1         6         7     9      180.000000        9.586241         2
         4         1         6         7     9        0.000000       -0.317745         3
         4         1         6         7     9      180.000000       -0.076443         4
         4         1        11        12     9        0.000000       -0.294695         1
         4         1        11        12     9      180.000000        4.394902         2
         4         1        11        12     9        0.000000        0.002178         3
         4         1        11        12     9      180.000000        0.599110         4
         4         1        11        14     9        0.000000       -0.047510         1
         4         1        11        14     9      180.000000        4.108702         2
         4         1        11        14     9        0.000000        0.265354         3
         4         1        11        14     9      180.000000        0.434806         4
         4         3         2         5     9        0.000000       -0.172695         1
         4         3         2         5     9      180.000000       17.269977         2
         4         3         2         5     9        0.000000       -1.150047         3
         4         3         2         5     9      180.000000       -0.415713         4
         4         3         2        32     9        0.000000        0.057194         1
         4         3         2        32     9      180.000000       13.340744         2
         4         3         2        32     9        0.000000       -0.358398         3
         4         3         2        32     9      180.000000        0.131357         4
         4         3        15        16     9        0.000000       -0.235194         1
         4         3        15        16     9      180.000000        3.390104         2
         4         3        15        16     9        0.000000        0.020231         3
         4         3        15        16     9      180.000000        0.120802         4
         4         3        15        39     9        0.000000       -0.401552         1
         4         3        15        39     9      180.000000        3.316238         2
         4         3        15        39     9        0.000000        0.053714         3
         4         3        15        39     9      180.000000        0.093664         4
         5         2         3        15     9        0.000000        0.246511         1
         5         2         3        15     9      180.000000       19.522853         2
         5         2         3        15     9        0.000000        0.055608         3
         5         2         3        15     9      180.000000       -0.772829         4
         5         6         1        11     9        0.000000        0.101898         1
         5         6         1        11     9      180.000000       12.486617         2
         5         6         1        11     9        0.000000       -0.026779         3
         5         6         1        11     9      180.000000       -0.401092         4
         5         6         7         8     9        0.000000        0.188120         1
         5         6         7         8     9      180.000000       16.793790         2
         5         6         7         8     9        0.000000       -0.050993         3
         5         6         7         8     9      180.000000       -0.239062         4
         5        10         9         8     9        0.000000       -0.161990         1
         5        10         9         8     9      180.000000       25.805864         2
         5        10         9         8     9        0.000000       -0.989158         3
         5        10         9         8     9      180.000000       -0.201960         4
         5        10         9        35     9        0.000000        0.808513         1
         5        10         9        35     9      180.000000       23.535886         2
         5        10         9        35     9        0.000000        0.064004         3
         5        10         9        35     9      180.000000       -0.475717         4
         6         1         4        33     9        0.000000        0.199153         1
         6         1         4        33     9      180.000000       15.676851         2
         6         1         4        33     9        0.000000       -0.326223         3
         6         1         4        33     9      180.000000        0.164781         4
         6         1        11        12     9        0.000000       -0.138157         1
         6         1        11        12     9      180.000000        4.037470         2
         6         1        11        12     9        0.000000       -0.098013         3
         6         1        11        12     9      180.000000        0.691025         4
         6         1        11        14     9        0.000000       -0.208169         1
         6         1        11        14     9      180.000000        3.751671         2
         6         1        11        14     9        0.000000       -0.189020         3
         6         1        11        14     9      180.000000        0.657410         4
         6         5         2        32     9        0.000000       -0.170721         1
         6         5         2        32     9      180.000000       10.545502         2
         6         5         2        32     9        0.000000       -0.262492         3
         6         5         2        32     9      180.000000       -0.003795         4
         6         5        10         9     9        0.000000       -0.107916         1
         6         5        10         9     9      180.000000       16.440884         2
         6         5        10         9     9        0.000000        0.043441         3
         6         5        10         9     9      180.000000       -0.231039         4
         6         7         8         9     9        0.000000        0.103245         1
         6         7         8         9     9      180.000000       25.050131         2
         6         7         8         9     9        0.000000       -0.948796         3
         6         7         8         9     9      180.000000       -0.159021         4
         6         7         8        34     9        0.000000        0.727425         1
         6         7         8        34     9      180.000000       22.903268         2
         6         7         8        34     9        0.000000        0.106514         3
         6         7         8        34     9      180.000000       -0.552430         4
         7         6         1        11     9        0.000000       -0.427611         1
         7         6         1        11     9      180.000000       12.287383         2
         7         6         1        11     9        0.000000       -0.141654         3
         7         6         1        11     9      180.000000       -0.439551         4
         7         6         5        10     9        0.000000        0.159900         1
         7         6         5        10     9      180.000000       11.086216         2
         7         6         5        10     9        0.000000        0.160518         3
         7         6         5        10     9      180.000000       -0.397158         4
         7         8         9        10     9        0.000000       -0.713203         1
         7         8         9        10     9      180.000000       11.742392         2
         7         8         9        10     9        0.000000       -0.552181         3
         7         8         9        10     9      180.000000       -0.521535         4
         7         8         9        35     9        0.000000       -0.026031         1
         7         8         9        35     9      180.000000        9.508286         2
         7         8         9        35     9        0.000000       -0.255749         3
         7         8         9        35     9      180.000000       -0.134502         4
        10         5         2        32     9        0.000000        0.016940         1
        10         5         2        32     9      180.000000       11.980067         2
        10         5         2        32     9        0.000000       -0.349905         3
        10         5         2        32     9      180.000000        0.012863         4
        10         9         8        34     9        0.000000       -0.199022         1
        10         9         8        34     9      180.000000        9.267615         2
        10         9         8        34     9        0.000000       -0.318099         3
        10         9         8        34     9      180.000000       -0.090079         4
        11         1         4        33     9        0.000000       -0.030998         1
        11         1         4        33     9      180.000000       14.909339         2
        11         1         4        33     9        0.000000       -0.146770         3
        11         1         4        33     9      180.000000        0.104997         4
        11        12        13        27     9        0.000000       -0.087303         1
        11        12        13        27     9      180.000000       20.137345         2
        11        12        13        27     9        0.000000       -1.775916         3
        11        12        13        27     9      180.000000       -0.532637         4
        11        12        13        37     9        0.000000        0.009610         1
        11        12        13        37     9      180.000000       14.878957         2
        11        12        13        37     9        0.000000       -0.450826         3
        11        12        13        37     9      180.000000        0.089938         4
        11        14        26        27     9        0.000000       -0.349708         1
        11        14        26        27     9      180.000000       18.061069         2
        11        14        26        27     9        0.000000       -1.453570         3
        11        14        26        27     9      180.000000       -0.527206         4
        11        14        26        30     9        0.000000        0.033469         1
        11        14        26        30     9      180.000000       17.472375         2
        11        14        26        30     9        0.000000       -0.198755         3
        11        14        26        30     9      180.000000       -0.638018         4
        12        11        14        26     9        0.000000       -0.288905         1
        12        11        14        26     9      180.000000       19.988903         2
        12        11        14        26     9        0.000000       -1.519521         3
        12        11        14        26     9      180.000000       -0.375932         4
        12        11        14        38     9        0.000000        0.000303         1
        12        11        14        38     9      180.000000       14.102688         2
        12        11        14        38     9        0.000000       -0.448978         3
        12        11        14        38     9      180.000000        0.102471         4
        12        13        27        26     9        0.000000        0.058768         1
        12        13        27        26     9      180.000000       17.998267         2
        12        13        27        26     9        0.000000       -1.449792         3
        12        13        27        26     9      180.000000       -0.350058         4
        12        13        27        28     9        0.000000        0.040897         1
        12        13        27        28     9      180.000000       14.967364         2
        12        13        27        28     9        0.000000       -0.302616         3
        12        13        27        28     9      180.000000       -0.252962         4
        13        12        11        14     9        0.000000       -0.077452         1
        13        12        11        14     9      180.000000       17.741200         2
        13        12        11        14     9        0.000000       -1.240906         3
        13        12        11        14     9      180.000000       -0.330886         4
        13        27        26        14     9        0.000000        0.107731         1
        13        27        26        14     9      180.000000       12.284597         2
        13        27        26        14     9        0.000000       -1.126783         3
        13        27        26        14     9      180.000000       -0.143180         4
        13        27        26        30     9        0.000000        0.113253         1
        13        27        26        30     9      180.000000       13.847644         2
        13        27        26        30     9        0.000000       -1.313947         3
        13        27        26        30     9      180.000000       -0.212018         4
        13        27        28        29     9        0.000000        0.280277         1
        13        27        28        29     9      180.000000        2.303131         2
        13        27        28        29     9        0.000000        0.125156         3
        13        27        28        29     9      180.000000        0.233586         4
        14        11        12        36     9        0.000000        0.087002         1
        14        11        12        36     9      180.000000       13.501515         2
        14        11        12        36     9        0.000000       -0.631821         3
        14        11        12        36     9      180.000000        0.142155         4
        14        26        27        28     9        0.000000        0.441935         1
        14        26        27        28     9      180.000000       12.875811         2
        14        26        27        28     9        0.000000       -0.621435         3
        14        26        27        28     9      180.000000       -0.275489         4
        14        26        30        29     9        0.000000        1.102665         1
        14        26        30        29     9      180.000000        8.774194         2
        14        26        30        29     9        0.000000        0.595313         3
        14        26        30        29     9      180.000000       -0.082564         4
        15         3         2        32     9        0.000000       -0.006423         1
        15         3         2        32     9      180.000000       15.238159         2
        15         3         2        32     9        0.000000       -0.072526         3
        15         3         2        32     9      180.000000        0.161232         4
        15         3         4        33     9        0.000000       -0.058685         1
        15         3         4        33     9      180.000000       14.053045         2
        15         3         4        33     9        0.000000       -0.041461         3
        15         3         4        33     9      180.000000        0.138032         4
        15        16        17        18     9        0.000000        0.186749         1
        15        16        17        18     9      180.000000       16.683917         2
        15        16        17        18     9        0.000000        0.179116         3
        15        16        17        18     9      180.000000       -0.684725         4
        15        16        17        40     9        0.000000       -0.299543         1
        15        16        17        40     9      180.000000       14.371219         2
        15        16        17        40     9        0.000000       -0.253273         3
        15        16        17        40     9      180.000000        0.145399         4
        15        16        21        20     9        0.000000        0.142199         1
        15        16        21        20     9      180.000000       15.897986         2
        15        16        21        20     9        0.000000        0.030266         3
        15        16        21        20     9      180.000000       -0.460852         4
        15        16        21        22     9        0.000000       -0.927876         1
        15        16        21        22     9      180.000000       13.516794         2
        15        16        21        22     9        0.000000       -0.073923         3
        15        16        21        22     9      180.000000       -0.622706         4
        16        17        18        19     9        0.000000        0.319722         1
        16        17        18        19     9      180.000000       22.949103         2
        16        17        18        19     9        0.000000       -0.741217         3
        16        17        18        19     9      180.000000        0.175923         4
        16        21        20        19     9        0.000000       -0.049559         1
        16        21        20        19     9      180.000000       18.886873         2
        16        21        20        19     9        0.000000       -2.021566         3
        16        21        20        19     9      180.000000       -0.405198         4
        16        21        20        42     9        0.000000        0.229105         1
        16        21        20        42     9      180.000000       14.976782         2
        16        21        20        42     9        0.000000       -0.507226         3
        16        21        20        42     9      180.000000        0.085320         4
        16        21        22        23     9        0.000000       -1.334284         1
        16        21        22        23     9      180.000000        0.814377         2
        16        21        22        23     9        0.000000        0.785313         3
        16        21        22        23     9      180.000000       -0.187784         4
        16        21        22        24     9        0.000000       -1.334284         1
        16        21        22        24     9      180.000000        0.814377         2
        16        21        22        24     9        0.000000        0.785313         3
        16        21        22        24     9      180.000000       -0.187784         4
        16        21        22        25     9        0.000000        3.729087         1
        16        21        22        25     9      180.000000       -2.195928         2
        16        21        22        25     9        0.000000        0.799428         3
        16        21        22        25     9      180.000000        0.054293         4
        17        16        15        39     9        0.000000       -1.272590         1
        17        16        15        39     9      180.000000        2.989698         2
        17        16        15        39     9        0.000000       -0.423807         3
        17        16        15        39     9      180.000000        0.040258         4
        17        16        21        20     9        0.000000       -0.037262         1
        17        16        21        20     9      180.000000       14.380144         2
        17        16        21        20     9        0.000000       -0.900345         3
        17        16        21        20     9      180.000000       -0.221952         4
        17        16        21        22     9        0.000000        0.366401         1
        17        16        21        22     9      180.000000       11.025740         2
        17        16        21        22     9        0.000000        0.150288         3
        17        16        21        22     9      180.000000       -0.363523         4
        17        18        19        20     9        0.000000        0.177563         1
        17        18        19        20     9      180.000000       22.523862         2
        17        18        19        20     9        0.000000       -0.901752         3
        17        18        19        20     9      180.000000       -0.193725         4
        17        18        19        41     9        0.000000        0.988694         1
        17        18        19        41     9      180.000000       20.417146         2
        17        18        19        41     9        0.000000        0.253449         3
        17        18        19        41     9      180.000000       -0.430136         4
        18        17        16        21     9        0.000000       -0.510166         1
        18        17        16        21     9      180.000000       14.375530         2
        18        17        16        21     9        0.000000       -0.595358         3
        18        17        16        21     9      180.000000       -0.489937         4
        18        19        20        21     9        0.000000       -0.220826         1
        18        19        20        21     9      180.000000       18.549630         2
        18        19        20        21     9        0.000000       -1.222990         3
        18        19        20        21     9      180.000000       -0.581963         4
        18        19        20        42     9        0.000000        0.066372         1
        18        19        20        42     9      180.000000       14.573595         2
        18        19        20        42     9        0.000000       -0.318036         3
        18        19        20        42     9      180.000000       -0.017204         4
        19        18        17        40     9        0.000000        1.115355         1
        19        18        17        40     9      180.000000       20.962220         2
        19        18        17        40     9        0.000000        0.247396         3
        19        18        17        40     9      180.000000       -0.016300         4
        19        20        21        22     9        0.000000        0.192524         1
        19        20        21        22     9      180.000000       13.995355         2
        19        20        21        22     9        0.000000        0.189775         3
        19        20        21        22     9      180.000000       -0.443899         4
        20        21        22        23     9        0.000000       -0.090527         1
        20        21        22        23     9      180.000000        0.655865         2
        20        21        22        23     9        0.000000       -0.321290         3
        20        21        22        23     9      180.000000       -0.045698         4
        20        21        22        24     9        0.000000       -0.090527         1
        20        21        22        24     9      180.000000        0.655865         2
        20        21        22        24     9        0.000000       -0.321290         3
        20        21        22        24     9      180.000000       -0.045698         4
        20        21        22        25     9        0.000000        0.119865         1
        20        21        22        25     9      180.000000       -0.559451         2
        20        21        22        25     9        0.000000       -0.551232         3
        20        21        22        25     9      180.000000        0.255503         4
        21        16        15        39     9        0.000000        2.440458         1
        21        16        15        39     9      180.000000        3.205589         2
        21        16        15        39     9        0.000000       -0.727467         3
        21        16        15        39     9      180.000000        0.027702         4
        21        16        17        40     9        0.000000        0.058995         1
        21        16        17        40     9      180.000000       12.296400         2
        21        16        17        40     9        0.000000       -0.329284         3
        21        16        17        40     9      180.000000        0.069067         4
        21        20        19        41     9        0.000000        0.008007         1
        21        20        19        41     9      180.000000       14.871301         2
        21        20        19        41     9        0.000000       -0.365300         3
        21        20        19        41     9      180.000000       -0.122425         4
        21        22        25        43     9        0.000000        0.134671         1
        21        22        25        43     9      180.000000       -0.180390         2
        21        22        25        43     9        0.000000        0.326690         3
        21        22        25        43     9      180.000000       -0.016353         4
        21        22        25        44     9        0.000000        0.134671         1
        21        22        25        44     9      180.000000       -0.180390         2
        21        22        25        44     9        0.000000        0.326690         3
        21        22        25        44     9      180.000000       -0.016353         4
        21        22        25        45     9        0.000000        0.134671         1
        21        22        25        45     9      180.000000       -0.180390         2
        21        22        25        45     9        0.000000        0.326690         3
        21        22        25        45     9      180.000000       -0.016353         4
        22        21        20        42     9        0.000000       -0.032266         1
        22        21        20        42     9      180.000000       12.082713         2
        22        21        20        42     9        0.000000       -0.269976         3
        22        21        20        42     9      180.000000        0.014566         4
        23        22        25        43     9        0.000000       -0.020339         1
        23        22        25        43     9      180.000000       -0.042566         2
        23        22        25        43     9        0.000000        0.357266         3
        23        22        25        43     9      180.000000        0.004050         4
        23        22        25        44     9        0.000000       -0.020339         1
        23        22        25        44     9      180.000000       -0.042566         2
        23        22        25        44     9        0.000000        0.357266         3
        23        22        25        44     9      180.000000        0.004050         4
        23        22        25        45     9        0.000000       -0.020339         1
        23        22        25        45     9      180.000000       -0.042566         2
        23        22        25        45     9        0.000000        0.357266         3
        23        22        25        45     9      180.000000        0.004050         4
        24        22        25        43     9        0.000000       -0.020339         1
        24        22        25        43     9      180.000000       -0.042566         2
        24        22        25        43     9        0.000000        0.357266         3
        24        22        25        43     9      180.000000        0.004050         4
        24        22        25        44     9        0.000000       -0.020339         1
        24        22        25        44     9      180.000000       -0.042566         2
        24        22        25        44     9        0.000000        0.357266         3
        24        22        25        44     9      180.000000        0.004050         4
        24        22        25        45     9        0.000000       -0.020339         1
        24        22        25        45     9      180.000000       -0.042566         2
        24        22        25        45     9        0.000000        0.357266         3
        24        22        25        45     9      180.000000        0.004050         4
        26        27        13        37     9        0.000000        0.281114         1
        26        27        13        37     9      180.000000       12.662590         2
        26        27        13        37     9        0.000000       -0.170589         3
        26        27        13        37     9      180.000000       -0.000079         4
        26        27        28        29     9        0.000000       -0.865784         1
        26        27        28        29     9      180.000000       16.773190         2
        26        27        28        29     9        0.000000       -4.774544         3
        26        27        28        29     9      180.000000       -0.108599         4
        26        30        29        28     9        0.000000       -0.923759         1
        26        30        29        28     9      180.000000       30.707317         2
        26        30        29        28     9        0.000000       -2.253715         3
        26        30        29        28     9      180.000000       -0.548095         4
        26        30        29        31     9        0.000000        0.276508         1
        26        30        29        31     9      180.000000       35.396357         2
        26        30        29        31     9        0.000000        0.859148         3
        26        30        29        31     9      180.000000       -1.413806         4
        27        13        12        36     9        0.000000        0.055281         1
        27        13        12        36     9      180.000000       15.994811         2
        27        13        12        36     9        0.000000       -0.623039         3
        27        13        12        36     9      180.000000        0.069325         4
        27        26        14        38     9        0.000000        0.037609         1
        27        26        14        38     9      180.000000       13.255089         2
        27        26        14        38     9        0.000000       -0.363973         3
        27        26        14        38     9      180.000000       -0.040399         4
        27        26        30        29     9        0.000000        0.065719         1
        27        26        30        29     9      180.000000       18.349951         2
        27        26        30        29     9        0.000000       -1.694374         3
        27        26        30        29     9      180.000000       -0.057155         4
        27        28        29        30     9        0.000000        0.060597         1
        27        28        29        30     9      180.000000       25.250671         2
        27        28        29        30     9        0.000000       -4.131995         3
        27        28        29        30     9      180.000000       -1.025621         4
        27        28        29        31     9        0.000000        0.726276         1
        27        28        29        31     9      180.000000       21.094885         2
        27        28        29        31     9        0.000000        0.218722         3
        27        28        29        31     9      180.000000       -1.172759         4
        28        27        13        37     9        0.000000       -0.018813         1
        28        27        13        37     9      180.000000       11.079259         2
        28        27        13        37     9        0.000000       -0.013650         3
        28        27        13        37     9      180.000000       -0.029028         4
        28        27        26        30     9        0.000000       -0.287679         1
        28        27        26        30     9      180.000000       19.681797         2
        28        27        26        30     9        0.000000       -2.625631         3
        28        27        26        30     9      180.000000       -0.745134         4
        28        29        31        46     9        0.000000        0.878429         1
        28        29        31        46     9      180.000000        4.072675         2
        28        29        31        46     9        0.000000        0.819845         3
        28        29        31        46     9      180.000000        0.445240         4
        28        29        31        47     9        0.000000        0.878429         1
        28        29        31        47     9      180.000000        4.072675         2
        28        29        31        47     9        0.000000        0.819845         3
        28        29        31        47     9      180.000000        0.445240         4
        30        26        14        38     9        0.000000        0.168331         1
        30        26        14        38     9      180.000000       13.512477         2
        30        26        14        38     9        0.000000       -0.291076         3
        30        26        14        38     9      180.000000        0.077077         4
        30        29        31        46     9        0.000000        8.340679         1
        30        29        31        46     9      180.000000        5.935290         2
        30        29        31        46     9        0.000000       -0.068308         3
        30        29        31        46     9      180.000000        0.465029         4
        30        29        31        47     9        0.000000        8.340679         1
        30        29        31        47     9      180.000000        5.935290         2
        30        29        31        47     9        0.000000       -0.068308         3
        30        29        31        47     9      180.000000        0.465029         4
        34         8         9        35     9        0.000000       -0.431715         1
        34         8         9        35     9      180.000000        6.869070         2
        34         8         9        35     9        0.000000       -0.569257         3
        34         8         9        35     9      180.000000        0.186659         4
        36        12        13        37     9        0.000000       -0.147295         1
        36        12        13        37     9      180.000000       12.319734         2
        36        12        13        37     9        0.000000       -0.741286         3
        36        12        13        37     9      180.000000        0.341822         4
        41        19        20        42     9        0.000000       -0.049751         1
        41        19        20        42     9      180.000000       11.944933         2
        41        19        20        42     9        0.000000       -0.710210         3
        41        19        20        42     9      180.000000        0.205813         4

[ dihedrals ] ; impropers
;       ai        aj        ak        al funct           phase               k        pn
         1         4         6        11     4      180.000000        0.332581         2
         1         6        11         4     4      180.000000        0.332581         2
         1        11         4         6     4      180.000000        0.332581         2
         8         7         9        34     4      180.000000        4.409855         2
         8         9        34         7     4      180.000000        4.409855         2
         8        34         7         9     4      180.000000        4.409855         2
         9         8        10        35     4      180.000000        4.162411         2
         9        10        35         8     4      180.000000        4.162411         2
         9        35         8        10     4      180.000000        4.162411         2
        17        16        18        40     4      180.000000        3.547249         2
        17        18        40        16     4      180.000000        3.547249         2
        17        40        16        18     4      180.000000        3.547249         2
        19        18        20        41     4      180.000000        3.347116         2
        19        20        41        18     4      180.000000        3.347116         2
        19        41        18        20     4      180.000000        3.347116         2

[ pairs ]
;       ai        aj funct
         1         2     1
         1         8     1
         1        10     1
         1        13     1
         1        15     1
         1        26     1
         1        36     1
         1        38     1
         2         7     1
         2         9     1
         2        16     1
         2        33     1
         2        39     1
         3         6     1
         3        10     1
         3        11     1
         3        17     1
         3        21     1
         4         5     1
         4         7     1
         4        12     1
         4        14     1
         4        16     1
         4        32     1
         4        39     1
         5         8     1
         5        11     1
         5        15     1
         5        35     1
         6         9     1
         6        12     1
         6        14     1
         6        32     1
         6        33     1
         6        34     1
         7        10     1
         7        11     1
         7        35     1
        10        32     1
        10        34     1
        11        27     1
        11        30     1
        11        33     1
        11        37     1
        12        26     1
        12        28     1
        12        38     1
        13        14     1
        13        29     1
        13        30     1
        14        28     1
        14        29     1
        14        36     1
        15        18     1
        15        20     1
        15        22     1
        15        32     1
        15        33     1
        15        40     1
        16        19     1
        16        23     1
        16        24     1
        16        25     1
        16        42     1
        17        20     1
        17        22     1
        17        39     1
        17        41     1
        18        21     1
        18        42     1
        19        22     1
        19        40     1
        20        23     1
        20        24     1
        20        25     1
        21        39     1
        21        40     1
        21        41     1
        21        43     1
        21        44     1
        21        45     1
        22        42     1
        23        43     1
        23        44     1
        23        45     1
        24        43     1
        24        44     1
        24        45     1
        26        31     1
        26        37     1
        27        31     1
        27        36     1
        27        38     1
        28        37     1
        28        46     1
        28        47     1
        30        38     1
        30        46     1
        30        47     1
        34        35     1
        36        37     1
        41        42     1
