; ITP file created by ByteFF-ML, 2026-02-21 07:45:38.945472

[ atomtypes ]
;name           bonded.type        at.num        mass        charge   ptype           sigma         epsilon
 c0bf                                   6      0.0000       0.00000       A     3.31696e-01     4.13508e-01
 c1bf                                   6      0.0000       0.00000       A     3.31534e-01     4.11219e-01
 c2bf                                   6      0.0000       0.00000       A     3.31588e-01     4.14304e-01
 c3bf                                   6      0.0000       0.00000       A     3.31158e-01     4.10830e-01
 c4bf                                   6      0.0000       0.00000       A     3.31387e-01     4.12836e-01
 c5bf                                   6      0.0000       0.00000       A     3.31581e-01     4.11588e-01
 n6bf                                   7      0.0000       0.00000       A     3.38246e-01     3.93082e-01
 c7bf                                   6      0.0000       0.00000       A     3.31514e-01     4.13144e-01
 c8bf                                   6      0.0000       0.00000       A     3.31562e-01     4.13392e-01
 n9bf                                   7      0.0000       0.00000       A     3.38456e-01     3.92772e-01
 c10bf                                  6      0.0000       0.00000       A     3.31414e-01     4.10321e-01
 n11bf                                  7      0.0000       0.00000       A     3.27929e-01     6.45227e-01
 c12bf                                  6      0.0000       0.00000       A     3.31581e-01     4.12886e-01
 c13bf                                  6      0.0000       0.00000       A     3.31706e-01     4.11679e-01
 n14bf                                  7      0.0000       0.00000       A     3.38344e-01     3.92967e-01
 c15bf                                  6      0.0000       0.00000       A     3.31482e-01     4.12140e-01
 c16bf                                  6      0.0000       0.00000       A     3.31194e-01     4.12903e-01
 c17bf                                  6      0.0000       0.00000       A     3.31298e-01     4.15822e-01
 s18bf                                 16      0.0000       0.00000       A     4.05645e-01     2.55727e-01
 o19bf                                  8      0.0000       0.00000       A     3.04857e-01     6.11370e-01
 o20bf                                  8      0.0000       0.00000       A     3.04857e-01     6.11370e-01
 c21bf                                  6      0.0000       0.00000       A     3.39611e-01     4.49156e-01
 c22bf                                  6      0.0000       0.00000       A     3.31471e-01     4.13423e-01
 c23bf                                  6      0.0000       0.00000       A     3.31382e-01     4.12471e-01
 c24bf                                  6      0.0000       0.00000       A     3.31449e-01     4.13886e-01
 c25bf                                  6      0.0000       0.00000       A     3.31484e-01     4.15690e-01
 c26bf                                  6      0.0000       0.00000       A     3.31481e-01     4.11802e-01
 s27bf                                 16      0.0000       0.00000       A     3.53170e-01     1.17735e+00
 c28bf                                  6      0.0000       0.00000       A     3.31663e-01     4.11535e-01
 c29bf                                  6      0.0000       0.00000       A     3.31544e-01     4.12153e-01
 n30bf                                  7      0.0000       0.00000       A     3.36946e-01     4.69212e-01
 h31bf                                  1      0.0000       0.00000       A     2.62399e-01     6.76733e-02
 h32bf                                  1      0.0000       0.00000       A     2.62381e-01     6.75967e-02
 h33bf                                  1      0.0000       0.00000       A     2.53506e-01     6.72855e-02
 h34bf                                  1      0.0000       0.00000       A     2.53506e-01     6.72855e-02
 h35bf                                  1      0.0000       0.00000       A     1.10952e-01     4.04428e-02
 h36bf                                  1      0.0000       0.00000       A     2.53583e-01     6.80915e-02
 h37bf                                  1      0.0000       0.00000       A     2.53644e-01     6.69998e-02
 h38bf                                  1      0.0000       0.00000       A     2.62744e-01     6.79622e-02
 h39bf                                  1      0.0000       0.00000       A     2.42021e-01     8.71597e-02
 h40bf                                  1      0.0000       0.00000       A     2.42021e-01     8.71597e-02
 h41bf                                  1      0.0000       0.00000       A     2.42021e-01     8.71597e-02
 h42bf                                  1      0.0000       0.00000       A     2.62523e-01     6.73286e-02
 h43bf                                  1      0.0000       0.00000       A     2.62448e-01     6.70940e-02
 h44bf                                  1      0.0000       0.00000       A     2.62381e-01     6.75664e-02
 h45bf                                  1      0.0000       0.00000       A     2.62423e-01     6.66343e-02
 h46bf                                  1      0.0000       0.00000       A     1.10579e-01     4.02273e-02
 h47bf                                  1      0.0000       0.00000       A     1.10579e-01     4.02273e-02

[ moleculetype ]
;name             nrexcl
 68                    3

[ atoms ]
;       nr            type      resi   res      atom      cgnr      charge          mass ; qtot
         1            c0bf         1   UNL        c0         1    -0.14199       12.0110 ; qtot   -0.142
         2            c1bf         1   UNL        c1         2     0.30813       12.0110 ; qtot    0.166
         3            c2bf         1   UNL        c2         3    -0.13267       12.0110 ; qtot    0.033
         4            c3bf         1   UNL        c3         4     0.02802       12.0110 ; qtot    0.061
         5            c4bf         1   UNL        c4         5     0.25847       12.0110 ; qtot    0.320
         6            c5bf         1   UNL        c5         6     0.21857       12.0110 ; qtot    0.539
         7            n6bf         1   UNL        n6         7    -0.62228       14.0070 ; qtot   -0.084
         8            c7bf         1   UNL        c7         8     0.29317       12.0110 ; qtot    0.209
         9            c8bf         1   UNL        c8         9     0.29405       12.0110 ; qtot    0.503
        10            n9bf         1   UNL        n9        10    -0.62285       14.0070 ; qtot   -0.119
        11           c10bf         1   UNL       c10        11    -0.04589       12.0110 ; qtot   -0.165
        12           n11bf         1   UNL       n11        12    -0.96404       14.0070 ; qtot   -1.129
        13           c12bf         1   UNL       c12        13     0.35358       12.0110 ; qtot   -0.776
        14           c13bf         1   UNL       c13        14     0.27846       12.0110 ; qtot   -0.497
        15           n14bf         1   UNL       n14        15    -0.60355       14.0070 ; qtot   -1.101
        16           c15bf         1   UNL       c15        16     0.28639       12.0110 ; qtot   -0.814
        17           c16bf         1   UNL       c16        17    -0.03902       12.0110 ; qtot   -0.853
        18           c17bf         1   UNL       c17        18    -0.27733       12.0110 ; qtot   -1.131
        19           s18bf         1   UNL       s18        19     0.99436       32.0670 ; qtot   -0.136
        20           o19bf         1   UNL       o19        20    -0.51400       15.9990 ; qtot   -0.650
        21           o20bf         1   UNL       o20        21    -0.51400       15.9990 ; qtot   -1.164
        22           c21bf         1   UNL       c21        22    -0.29607       12.0110 ; qtot   -1.460
        23           c22bf         1   UNL       c22        23    -0.07778       12.0110 ; qtot   -1.538
        24           c23bf         1   UNL       c23        24    -0.08755       12.0110 ; qtot   -1.626
        25           c24bf         1   UNL       c24        25    -0.05992       12.0110 ; qtot   -1.686
        26           c25bf         1   UNL       c25        26    -0.03554       12.0110 ; qtot   -1.721
        27           c26bf         1   UNL       c26        27    -0.14983       12.0110 ; qtot   -1.871
        28           s27bf         1   UNL       s27        28     0.01237       32.0670 ; qtot   -1.859
        29           c28bf         1   UNL       c28        29     0.16789       12.0110 ; qtot   -1.691
        30           c29bf         1   UNL       c29        30    -0.25429       12.0110 ; qtot   -1.945
        31           n30bf         1   UNL       n30        31    -0.89667       14.0070 ; qtot   -2.842
        32           h31bf         1   UNL       h31        32     0.14328        1.0080 ; qtot   -2.699
        33           h32bf         1   UNL       h32        33     0.12730        1.0080 ; qtot   -2.571
        34           h33bf         1   UNL       h33        34     0.03158        1.0080 ; qtot   -2.540
        35           h34bf         1   UNL       h34        35     0.03160        1.0080 ; qtot   -2.508
        36           h35bf         1   UNL       h35        36     0.51181        1.0080 ; qtot   -1.996
        37           h36bf         1   UNL       h36        37     0.03589        1.0080 ; qtot   -1.960
        38           h37bf         1   UNL       h37        38     0.03700        1.0080 ; qtot   -1.923
        39           h38bf         1   UNL       h38        39     0.15079        1.0080 ; qtot   -1.773
        40           h39bf         1   UNL       h39        40     0.10467        1.0080 ; qtot   -1.668
        41           h40bf         1   UNL       h40        41     0.10467        1.0080 ; qtot   -1.563
        42           h41bf         1   UNL       h41        42     0.10467        1.0080 ; qtot   -1.459
        43           h42bf         1   UNL       h42        43     0.12173        1.0080 ; qtot   -1.337
        44           h43bf         1   UNL       h43        44     0.12336        1.0080 ; qtot   -1.213
        45           h44bf         1   UNL       h44        45     0.12729        1.0080 ; qtot   -1.086
        46           h45bf         1   UNL       h45        46     0.20056        1.0080 ; qtot   -0.886
        47           h46bf         1   UNL       h46        47     0.44283        1.0080 ; qtot   -0.443
        48           h47bf         1   UNL       h47        48     0.44278        1.0080 ; qtot   -0.000

[ bonds ]
;       ai        aj funct               r               k
         1         2     1        0.138622   325678.790723
         1         5     1        0.141521   284459.010498
         1        32     1        0.108434   324306.120020
         2         3     1        0.142346   251378.111328
         2        12     1        0.140593   260287.089453
         3         4     1        0.138640   330236.066650
         3        33     1        0.108420   321509.091504
         4         6     1        0.143472   236573.482910
         4        11     1        0.148417   213416.444897
         5         6     1        0.143386   223579.461084
         5        10     1        0.136675   270922.835840
         6         7     1        0.136378   268382.250977
         7         8     1        0.131881   374103.202393
         8         9     1        0.142216   238192.510107
         8        34     1        0.108820   315940.162988
         9        10     1        0.131846   380187.239941
         9        35     1        0.108836   315483.763770
        11        23     1        0.141554   267238.214014
        11        25     1        0.139829   295810.204541
        12        13     1        0.138908   287909.073975
        12        36     1        0.101485   406811.259766
        13        14     1        0.141520   257222.712939
        13        18     1        0.141314   265581.366357
        14        15     1        0.133244   341315.137256
        14        37     1        0.108642   319937.129199
        15        16     1        0.133977   313656.558057
        16        17     1        0.139506   299656.731641
        16        38     1        0.108702   319547.177539
        17        18     1        0.139402   313134.043262
        17        39     1        0.108446   326160.088623
        18        19     1        0.180715   124483.627490
        19        20     1        0.147464   495020.215039
        19        21     1        0.147464   495020.215039
        19        22     1        0.180772   140787.539600
        22        40     1        0.109028   319230.108789
        22        41     1        0.109028   319230.108789
        22        42     1        0.109028   319230.108789
        23        24     1        0.139224   324679.191650
        23        43     1        0.108508   321134.589795
        24        27     1        0.139822   307205.296875
        24        44     1        0.108627   318697.404687
        25        26     1        0.140654   293941.986230
        25        45     1        0.108542   319918.436035
        26        27     1        0.141860   252768.402637
        26        30     1        0.144120   245952.650293
        27        28     1        0.176043   144530.220044
        28        29     1        0.176856   133038.508057
        29        30     1        0.136731   384518.461377
        29        31     1        0.139392   301999.786963
        30        46     1        0.108386   326997.705811
        31        47     1        0.101386   414661.290576
        31        48     1        0.101386   414661.290576

[ angles ]
;       ai        aj        ak funct           theta             cth
         1         2         3     1      119.340256      642.053685
         1         2        12     1      121.254745      492.361087
         1         5         6     1      120.564919      663.113437
         1         5        10     1      118.281189      431.308051
         2         1         5     1      120.257889      537.525444
         2         1        32     1      121.917053      423.581575
         2         3         4     1      122.429420      713.748800
         2         3        33     1      118.470383      447.200912
         2        12        13     1      126.297546      421.362209
         2        12        36     1      115.426346      433.799388
         3         2        12     1      119.236771      541.059908
         3         4         6     1      118.233109      534.183977
         3         4        11     1      119.147461      472.606154
         4         3        33     1      118.662170      416.165503
         4         6         5     1      118.969040      697.697450
         4         6         7     1      120.402367      430.999946
         4        11        23     1      120.189377      503.794306
         4        11        25     1      120.502731      428.590839
         5         1        32     1      117.843239      439.647833
         5         6         7     1      120.208412      782.715594
         5        10         9     1      116.661819      559.934704
         6         4        11     1      122.679550      443.908316
         6         5        10     1      121.322975      705.924740
         6         7         8     1      117.611557      602.010986
         7         8         9     1      122.256546      732.863901
         7         8        34     1      117.339157      362.478902
         8         9        10     1      122.299545      738.442163
         8         9        35     1      120.145851      429.987368
         9         8        34     1      120.142014      430.475797
        10         9        35     1      117.380966      342.428057
        11        23        24     1      121.562767      662.329575
        11        23        43     1      119.056824      414.574126
        11        25        26     1      120.509132      706.538972
        11        25        45     1      119.778870      408.668510
        12        13        14     1      122.505417      578.362793
        12        13        18     1      121.389572      543.101089
        13        12        36     1      114.551170      450.222622
        13        14        15     1      124.232620      770.104221
        13        14        37     1      119.153419      415.430290
        13        18        17     1      120.275772      760.585008
        13        18        19     1      121.663406      744.979280
        14        13        18     1      115.672928      673.644813
        14        15        16     1      118.320412      693.264846
        15        14        37     1      116.504784      340.209553
        15        16        17     1      122.754715      730.070077
        15        16        38     1      116.530663      356.374383
        16        17        18     1      118.684891      679.603961
        16        17        39     1      121.212906      424.346476
        17        16        38     1      120.538696      415.343272
        17        18        19     1      117.699501      539.880923
        18        17        39     1      120.270653      343.599700
        18        19        20     1      107.938034      640.902280
        18        19        21     1      107.938034      640.902280
        18        19        22     1      103.486084      654.077513
        19        22        40     1      107.672241      569.998432
        19        22        41     1      107.672241      569.998432
        19        22        42     1      107.672241      569.998432
        20        19        21     1      120.015259      741.792185
        20        19        22     1      107.539917      732.341348
        21        19        22     1      107.539917      732.341348
        23        11        25     1      119.275192      660.937547
        23        24        27     1      118.861206      717.355470
        23        24        44     1      120.226929      435.290563
        24        23        43     1      119.496254      408.712178
        24        27        26     1      121.186111      651.894665
        24        27        28     1      127.277145      371.490182
        25        26        27     1      118.821411      714.888138
        25        26        30     1      129.160812      404.907309
        26        25        45     1      119.669411      427.274433
        26        27        28     1      111.487099      167.360000
        26        30        29     1      113.046982      421.021799
        26        30        46     1      124.018631      406.727243
        27        24        44     1      121.006920      431.649099
        27        26        30     1      112.179466      405.363593
        27        28        29     1       90.873589      586.165721
        28        29        30     1      112.753128      167.360000
        28        29        31     1      118.753151      530.757408
        29        30        46     1      123.138184      416.854558
        29        31        47     1      114.001976      491.536430
        29        31        48     1      114.001976      491.536430
        30        29        31     1      128.575699      512.684093
        40        22        41     1      111.147987      344.776258
        40        22        42     1      111.147987      344.776258
        41        22        42     1      111.147987      344.776258
        47        31        48     1      111.159142      381.032378

[ dihedrals ] ; propers for gromacs 4.5 or higher, use funct 9
;       ai        aj        ak        al funct           phase               k        pn
         1         2         3         4     9        0.000000        0.157508         1
         1         2         3         4     9      180.000000       14.110913         2
         1         2         3         4     9        0.000000       -0.831494         3
         1         2         3         4     9      180.000000       -0.233543         4
         1         2         3        33     9        0.000000       -0.064754         1
         1         2         3        33     9      180.000000       11.935983         2
         1         2         3        33     9        0.000000       -0.432953         3
         1         2         3        33     9      180.000000        0.110544         4
         1         2        12        13     9        0.000000       -0.167871         1
         1         2        12        13     9      180.000000        3.526327         2
         1         2        12        13     9        0.000000       -0.356690         3
         1         2        12        13     9      180.000000        0.139573         4
         1         2        12        36     9        0.000000       -0.457731         1
         1         2        12        36     9      180.000000        3.512783         2
         1         2        12        36     9        0.000000       -0.099181         3
         1         2        12        36     9      180.000000        0.073473         4
         1         5         6         4     9        0.000000        0.174093         1
         1         5         6         4     9      180.000000       11.459543         2
         1         5         6         4     9        0.000000       -0.452764         3
         1         5         6         4     9      180.000000       -0.210325         4
         1         5         6         7     9        0.000000        0.340548         1
         1         5         6         7     9      180.000000       11.179590         2
         1         5         6         7     9        0.000000       -0.065208         3
         1         5         6         7     9      180.000000       -0.244500         4
         1         5        10         9     9        0.000000       -0.023334         1
         1         5        10         9     9      180.000000       18.424194         2
         1         5        10         9     9        0.000000        0.154347         3
         1         5        10         9     9      180.000000       -0.275637         4
         2         1         5         6     9        0.000000       -0.535157         1
         2         1         5         6     9      180.000000       13.643161         2
         2         1         5         6     9        0.000000       -0.954560         3
         2         1         5         6     9      180.000000       -0.185752         4
         2         1         5        10     9        0.000000       -0.306896         1
         2         1         5        10     9      180.000000       14.010283         2
         2         1         5        10     9        0.000000       -0.425194         3
         2         1         5        10     9      180.000000       -0.392180         4
         2         3         4         6     9        0.000000       -0.221802         1
         2         3         4         6     9      180.000000       19.341021         2
         2         3         4         6     9        0.000000       -1.519616         3
         2         3         4         6     9      180.000000       -0.315680         4
         2         3         4        11     9        0.000000        0.367538         1
         2         3         4        11     9      180.000000       19.325212         2
         2         3         4        11     9        0.000000        0.060918         3
         2         3         4        11     9      180.000000       -0.798692         4
         2        12        13        14     9        0.000000        1.786047         1
         2        12        13        14     9      180.000000        3.116500         2
         2        12        13        14     9        0.000000       -0.286577         3
         2        12        13        14     9      180.000000        0.145436         4
         2        12        13        18     9        0.000000       -1.816149         1
         2        12        13        18     9      180.000000        4.619862         2
         2        12        13        18     9        0.000000       -0.590150         3
         2        12        13        18     9      180.000000        0.059912         4
         3         2         1         5     9        0.000000       -0.172695         1
         3         2         1         5     9      180.000000       17.269977         2
         3         2         1         5     9        0.000000       -1.150047         3
         3         2         1         5     9      180.000000       -0.415713         4
         3         2         1        32     9        0.000000        0.057194         1
         3         2         1        32     9      180.000000       13.340744         2
         3         2         1        32     9        0.000000       -0.358398         3
         3         2         1        32     9      180.000000        0.131357         4
         3         2        12        13     9        0.000000       -0.235194         1
         3         2        12        13     9      180.000000        3.390104         2
         3         2        12        13     9        0.000000        0.020231         3
         3         2        12        13     9      180.000000        0.120802         4
         3         2        12        36     9        0.000000       -0.401552         1
         3         2        12        36     9      180.000000        3.316239         2
         3         2        12        36     9        0.000000        0.053715         3
         3         2        12        36     9      180.000000        0.093663         4
         3         4         6         5     9        0.000000       -0.396451         1
         3         4         6         5     9      180.000000       10.504707         2
         3         4         6         5     9        0.000000       -0.858838         3
         3         4         6         5     9      180.000000        0.031998         4
         3         4         6         7     9        0.000000        0.052327         1
         3         4         6         7     9      180.000000        9.521045         2
         3         4         6         7     9        0.000000       -0.305150         3
         3         4         6         7     9      180.000000       -0.084438         4
         3         4        11        23     9        0.000000       -0.341841         1
         3         4        11        23     9      180.000000        4.448324         2
         3         4        11        23     9        0.000000       -0.009274         3
         3         4        11        23     9      180.000000        0.603765         4
         3         4        11        25     9        0.000000       -0.250397         1
         3         4        11        25     9      180.000000        4.213548         2
         3         4        11        25     9        0.000000        0.282630         3
         3         4        11        25     9      180.000000        0.436685         4
         4         3         2        12     9        0.000000        0.204465         1
         4         3         2        12     9      180.000000       15.529948         2
         4         3         2        12     9        0.000000        0.098559         3
         4         3         2        12     9      180.000000       -0.442691         4
         4         6         5        10     9        0.000000       -0.277503         1
         4         6         5        10     9      180.000000       10.277167         2
         4         6         5        10     9        0.000000        0.078718         3
         4         6         5        10     9      180.000000       -0.282062         4
         4         6         7         8     9        0.000000        0.616102         1
         4         6         7         8     9      180.000000       16.382268         2
         4         6         7         8     9        0.000000        0.386816         3
         4         6         7         8     9      180.000000       -0.383697         4
         4        11        23        24     9        0.000000        0.270969         1
         4        11        23        24     9      180.000000       14.443374         2
         4        11        23        24     9        0.000000       -0.112127         3
         4        11        23        24     9      180.000000       -0.115044         4
         4        11        23        43     9        0.000000        0.006665         1
         4        11        23        43     9      180.000000       12.649288         2
         4        11        23        43     9        0.000000       -0.190285         3
         4        11        23        43     9      180.000000        0.166994         4
         4        11        25        26     9        0.000000        0.253484         1
         4        11        25        26     9      180.000000       16.780586         2
         4        11        25        26     9        0.000000        0.114565         3
         4        11        25        26     9      180.000000       -0.493610         4
         4        11        25        45     9        0.000000        0.023505         1
         4        11        25        45     9      180.000000       12.861360         2
         4        11        25        45     9        0.000000       -0.124409         3
         4        11        25        45     9      180.000000        0.205600         4
         5         1         2        12     9        0.000000        0.246511         1
         5         1         2        12     9      180.000000       19.522853         2
         5         1         2        12     9        0.000000        0.055608         3
         5         1         2        12     9      180.000000       -0.772829         4
         5         6         4        11     9        0.000000        0.139887         1
         5         6         4        11     9      180.000000       12.471133         2
         5         6         4        11     9        0.000000       -0.030738         3
         5         6         4        11     9      180.000000       -0.416520         4
         5         6         7         8     9        0.000000        0.188120         1
         5         6         7         8     9      180.000000       16.793790         2
         5         6         7         8     9        0.000000       -0.050993         3
         5         6         7         8     9      180.000000       -0.239062         4
         5        10         9         8     9        0.000000       -0.161990         1
         5        10         9         8     9      180.000000       25.805864         2
         5        10         9         8     9        0.000000       -0.989158         3
         5        10         9         8     9      180.000000       -0.201960         4
         5        10         9        35     9        0.000000        0.808513         1
         5        10         9        35     9      180.000000       23.535886         2
         5        10         9        35     9        0.000000        0.064004         3
         5        10         9        35     9      180.000000       -0.475717         4
         6         4         3        33     9        0.000000        0.201350         1
         6         4         3        33     9      180.000000       15.623436         2
         6         4         3        33     9        0.000000       -0.321889         3
         6         4         3        33     9      180.000000        0.172138         4
         6         4        11        23     9        0.000000       -0.232082         1
         6         4        11        23     9      180.000000        4.068609         2
         6         4        11        23     9        0.000000       -0.083986         3
         6         4        11        23     9      180.000000        0.688904         4
         6         4        11        25     9        0.000000        0.121152         1
         6         4        11        25     9      180.000000        3.793972         2
         6         4        11        25     9        0.000000       -0.303808         3
         6         4        11        25     9      180.000000        0.707519         4
         6         5         1        32     9        0.000000       -0.170721         1
         6         5         1        32     9      180.000000       10.545502         2
         6         5         1        32     9        0.000000       -0.262492         3
         6         5         1        32     9      180.000000       -0.003795         4
         6         5        10         9     9        0.000000       -0.107916         1
         6         5        10         9     9      180.000000       16.440884         2
         6         5        10         9     9        0.000000        0.043441         3
         6         5        10         9     9      180.000000       -0.231039         4
         6         7         8         9     9        0.000000        0.103245         1
         6         7         8         9     9      180.000000       25.050131         2
         6         7         8         9     9        0.000000       -0.948796         3
         6         7         8         9     9      180.000000       -0.159021         4
         6         7         8        34     9        0.000000        0.727425         1
         6         7         8        34     9      180.000000       22.903268         2
         6         7         8        34     9        0.000000        0.106514         3
         6         7         8        34     9      180.000000       -0.552430         4
         7         6         4        11     9        0.000000       -0.460295         1
         7         6         4        11     9      180.000000       12.320430         2
         7         6         4        11     9        0.000000       -0.148445         3
         7         6         4        11     9      180.000000       -0.455436         4
         7         6         5        10     9        0.000000        0.159900         1
         7         6         5        10     9      180.000000       11.086216         2
         7         6         5        10     9        0.000000        0.160518         3
         7         6         5        10     9      180.000000       -0.397158         4
         7         8         9        10     9        0.000000       -0.713203         1
         7         8         9        10     9      180.000000       11.742392         2
         7         8         9        10     9        0.000000       -0.552181         3
         7         8         9        10     9      180.000000       -0.521535         4
         7         8         9        35     9        0.000000       -0.026031         1
         7         8         9        35     9      180.000000        9.508286         2
         7         8         9        35     9        0.000000       -0.255749         3
         7         8         9        35     9      180.000000       -0.134502         4
        10         5         1        32     9        0.000000        0.016940         1
        10         5         1        32     9      180.000000       11.980067         2
        10         5         1        32     9        0.000000       -0.349905         3
        10         5         1        32     9      180.000000        0.012863         4
        10         9         8        34     9        0.000000       -0.199022         1
        10         9         8        34     9      180.000000        9.267615         2
        10         9         8        34     9        0.000000       -0.318099         3
        10         9         8        34     9      180.000000       -0.090079         4
        11         4         3        33     9        0.000000       -0.001892         1
        11         4         3        33     9      180.000000       14.971737         2
        11         4         3        33     9        0.000000       -0.134626         3
        11         4         3        33     9      180.000000        0.099182         4
        11        23        24        27     9        0.000000       -0.181143         1
        11        23        24        27     9      180.000000       20.596253         2
        11        23        24        27     9        0.000000       -1.739599         3
        11        23        24        27     9      180.000000       -0.587589         4
        11        23        24        44     9        0.000000        0.027421         1
        11        23        24        44     9      180.000000       14.981650         2
        11        23        24        44     9        0.000000       -0.435550         3
        11        23        24        44     9      180.000000        0.071937         4
        11        25        26        27     9        0.000000       -0.234444         1
        11        25        26        27     9      180.000000       18.137530         2
        11        25        26        27     9        0.000000       -1.525553         3
        11        25        26        27     9      180.000000       -0.462642         4
        11        25        26        30     9        0.000000       -0.107452         1
        11        25        26        30     9      180.000000       14.093950         2
        11        25        26        30     9        0.000000       -0.529171         3
        11        25        26        30     9      180.000000       -0.241215         4
        12         2         1        32     9        0.000000       -0.006423         1
        12         2         1        32     9      180.000000       15.238159         2
        12         2         1        32     9        0.000000       -0.072526         3
        12         2         1        32     9      180.000000        0.161232         4
        12         2         3        33     9        0.000000       -0.058685         1
        12         2         3        33     9      180.000000       14.053045         2
        12         2         3        33     9        0.000000       -0.041461         3
        12         2         3        33     9      180.000000        0.138032         4
        12        13        14        15     9        0.000000        0.186749         1
        12        13        14        15     9      180.000000       16.683917         2
        12        13        14        15     9        0.000000        0.179116         3
        12        13        14        15     9      180.000000       -0.684725         4
        12        13        14        37     9        0.000000       -0.299543         1
        12        13        14        37     9      180.000000       14.371219         2
        12        13        14        37     9        0.000000       -0.253273         3
        12        13        14        37     9      180.000000        0.145399         4
        12        13        18        17     9        0.000000        0.142199         1
        12        13        18        17     9      180.000000       15.897986         2
        12        13        18        17     9        0.000000        0.030266         3
        12        13        18        17     9      180.000000       -0.460852         4
        12        13        18        19     9        0.000000       -0.927876         1
        12        13        18        19     9      180.000000       13.516794         2
        12        13        18        19     9        0.000000       -0.073923         3
        12        13        18        19     9      180.000000       -0.622706         4
        13        14        15        16     9        0.000000        0.319722         1
        13        14        15        16     9      180.000000       22.949103         2
        13        14        15        16     9        0.000000       -0.741217         3
        13        14        15        16     9      180.000000        0.175923         4
        13        18        17        16     9        0.000000       -0.049559         1
        13        18        17        16     9      180.000000       18.886873         2
        13        18        17        16     9        0.000000       -2.021566         3
        13        18        17        16     9      180.000000       -0.405198         4
        13        18        17        39     9        0.000000        0.229105         1
        13        18        17        39     9      180.000000       14.976782         2
        13        18        17        39     9        0.000000       -0.507226         3
        13        18        17        39     9      180.000000        0.085320         4
        13        18        19        20     9        0.000000       -1.334284         1
        13        18        19        20     9      180.000000        0.814377         2
        13        18        19        20     9        0.000000        0.785313         3
        13        18        19        20     9      180.000000       -0.187784         4
        13        18        19        21     9        0.000000       -1.334284         1
        13        18        19        21     9      180.000000        0.814377         2
        13        18        19        21     9        0.000000        0.785313         3
        13        18        19        21     9      180.000000       -0.187784         4
        13        18        19        22     9        0.000000        3.729086         1
        13        18        19        22     9      180.000000       -2.195929         2
        13        18        19        22     9        0.000000        0.799429         3
        13        18        19        22     9      180.000000        0.054293         4
        14        13        12        36     9        0.000000       -1.272588         1
        14        13        12        36     9      180.000000        2.989698         2
        14        13        12        36     9        0.000000       -0.423806         3
        14        13        12        36     9      180.000000        0.040258         4
        14        13        18        17     9        0.000000       -0.037262         1
        14        13        18        17     9      180.000000       14.380144         2
        14        13        18        17     9        0.000000       -0.900345         3
        14        13        18        17     9      180.000000       -0.221952         4
        14        13        18        19     9        0.000000        0.366401         1
        14        13        18        19     9      180.000000       11.025740         2
        14        13        18        19     9        0.000000        0.150288         3
        14        13        18        19     9      180.000000       -0.363523         4
        14        15        16        17     9        0.000000        0.177563         1
        14        15        16        17     9      180.000000       22.523862         2
        14        15        16        17     9        0.000000       -0.901752         3
        14        15        16        17     9      180.000000       -0.193725         4
        14        15        16        38     9        0.000000        0.988694         1
        14        15        16        38     9      180.000000       20.417146         2
        14        15        16        38     9        0.000000        0.253449         3
        14        15        16        38     9      180.000000       -0.430136         4
        15        14        13        18     9        0.000000       -0.510166         1
        15        14        13        18     9      180.000000       14.375530         2
        15        14        13        18     9        0.000000       -0.595358         3
        15        14        13        18     9      180.000000       -0.489937         4
        15        16        17        18     9        0.000000       -0.220826         1
        15        16        17        18     9      180.000000       18.549630         2
        15        16        17        18     9        0.000000       -1.222990         3
        15        16        17        18     9      180.000000       -0.581963         4
        15        16        17        39     9        0.000000        0.066372         1
        15        16        17        39     9      180.000000       14.573595         2
        15        16        17        39     9        0.000000       -0.318036         3
        15        16        17        39     9      180.000000       -0.017204         4
        16        15        14        37     9        0.000000        1.115355         1
        16        15        14        37     9      180.000000       20.962220         2
        16        15        14        37     9        0.000000        0.247396         3
        16        15        14        37     9      180.000000       -0.016300         4
        16        17        18        19     9        0.000000        0.192524         1
        16        17        18        19     9      180.000000       13.995355         2
        16        17        18        19     9        0.000000        0.189775         3
        16        17        18        19     9      180.000000       -0.443899         4
        17        18        19        20     9        0.000000       -0.090527         1
        17        18        19        20     9      180.000000        0.655865         2
        17        18        19        20     9        0.000000       -0.321290         3
        17        18        19        20     9      180.000000       -0.045698         4
        17        18        19        21     9        0.000000       -0.090527         1
        17        18        19        21     9      180.000000        0.655865         2
        17        18        19        21     9        0.000000       -0.321290         3
        17        18        19        21     9      180.000000       -0.045698         4
        17        18        19        22     9        0.000000        0.119865         1
        17        18        19        22     9      180.000000       -0.559451         2
        17        18        19        22     9        0.000000       -0.551232         3
        17        18        19        22     9      180.000000        0.255504         4
        18        13        12        36     9        0.000000        2.440458         1
        18        13        12        36     9      180.000000        3.205589         2
        18        13        12        36     9        0.000000       -0.727467         3
        18        13        12        36     9      180.000000        0.027702         4
        18        13        14        37     9        0.000000        0.058995         1
        18        13        14        37     9      180.000000       12.296400         2
        18        13        14        37     9        0.000000       -0.329284         3
        18        13        14        37     9      180.000000        0.069067         4
        18        17        16        38     9        0.000000        0.008007         1
        18        17        16        38     9      180.000000       14.871301         2
        18        17        16        38     9        0.000000       -0.365300         3
        18        17        16        38     9      180.000000       -0.122425         4
        18        19        22        40     9        0.000000        0.134670         1
        18        19        22        40     9      180.000000       -0.180389         2
        18        19        22        40     9        0.000000        0.326690         3
        18        19        22        40     9      180.000000       -0.016353         4
        18        19        22        41     9        0.000000        0.134670         1
        18        19        22        41     9      180.000000       -0.180389         2
        18        19        22        41     9        0.000000        0.326690         3
        18        19        22        41     9      180.000000       -0.016353         4
        18        19        22        42     9        0.000000        0.134670         1
        18        19        22        42     9      180.000000       -0.180389         2
        18        19        22        42     9        0.000000        0.326690         3
        18        19        22        42     9      180.000000       -0.016353         4
        19        18        17        39     9        0.000000       -0.032266         1
        19        18        17        39     9      180.000000       12.082713         2
        19        18        17        39     9        0.000000       -0.269976         3
        19        18        17        39     9      180.000000        0.014566         4
        20        19        22        40     9        0.000000       -0.020339         1
        20        19        22        40     9      180.000000       -0.042567         2
        20        19        22        40     9        0.000000        0.357266         3
        20        19        22        40     9      180.000000        0.004050         4
        20        19        22        41     9        0.000000       -0.020339         1
        20        19        22        41     9      180.000000       -0.042567         2
        20        19        22        41     9        0.000000        0.357266         3
        20        19        22        41     9      180.000000        0.004050         4
        20        19        22        42     9        0.000000       -0.020339         1
        20        19        22        42     9      180.000000       -0.042567         2
        20        19        22        42     9        0.000000        0.357266         3
        20        19        22        42     9      180.000000        0.004050         4
        21        19        22        40     9        0.000000       -0.020339         1
        21        19        22        40     9      180.000000       -0.042567         2
        21        19        22        40     9        0.000000        0.357266         3
        21        19        22        40     9      180.000000        0.004050         4
        21        19        22        41     9        0.000000       -0.020339         1
        21        19        22        41     9      180.000000       -0.042567         2
        21        19        22        41     9        0.000000        0.357266         3
        21        19        22        41     9      180.000000        0.004050         4
        21        19        22        42     9        0.000000       -0.020339         1
        21        19        22        42     9      180.000000       -0.042567         2
        21        19        22        42     9        0.000000        0.357266         3
        21        19        22        42     9      180.000000        0.004050         4
        23        11        25        26     9        0.000000       -0.190305         1
        23        11        25        26     9      180.000000       20.066831         2
        23        11        25        26     9        0.000000       -1.467446         3
        23        11        25        26     9      180.000000       -0.531862         4
        23        11        25        45     9        0.000000        0.070814         1
        23        11        25        45     9      180.000000       14.021656         2
        23        11        25        45     9        0.000000       -0.435196         3
        23        11        25        45     9      180.000000        0.094852         4
        23        24        27        26     9        0.000000        0.090869         1
        23        24        27        26     9      180.000000       18.010074         2
        23        24        27        26     9        0.000000       -1.427435         3
        23        24        27        26     9      180.000000       -0.392551         4
        23        24        27        28     9        0.000000        0.016348         1
        23        24        27        28     9      180.000000       14.050456         2
        23        24        27        28     9        0.000000       -0.222372         3
        23        24        27        28     9      180.000000       -0.221594         4
        24        23        11        25     9        0.000000       -0.060191         1
        24        23        11        25     9      180.000000       17.525097         2
        24        23        11        25     9        0.000000       -1.208196         3
        24        23        11        25     9      180.000000       -0.277434         4
        24        27        26        25     9        0.000000        0.220830         1
        24        27        26        25     9      180.000000       12.576809         2
        24        27        26        25     9        0.000000       -1.074727         3
        24        27        26        25     9      180.000000       -0.164883         4
        24        27        26        30     9        0.000000        0.423387         1
        24        27        26        30     9      180.000000       12.138505         2
        24        27        26        30     9        0.000000       -1.269405         3
        24        27        26        30     9      180.000000       -0.105886         4
        24        27        28        29     9        0.000000        0.373717         1
        24        27        28        29     9      180.000000        3.069167         2
        24        27        28        29     9        0.000000       -0.084849         3
        24        27        28        29     9      180.000000        0.268206         4
        25        11        23        43     9        0.000000        0.081424         1
        25        11        23        43     9      180.000000       13.273848         2
        25        11        23        43     9        0.000000       -0.664809         3
        25        11        23        43     9      180.000000        0.153648         4
        25        26        27        28     9        0.000000        0.386045         1
        25        26        27        28     9      180.000000       12.022547         2
        25        26        27        28     9        0.000000       -0.633867         3
        25        26        27        28     9      180.000000       -0.307775         4
        25        26        30        29     9        0.000000        0.540166         1
        25        26        30        29     9      180.000000        4.474351         2
        25        26        30        29     9        0.000000       -0.101302         3
        25        26        30        29     9      180.000000        0.023200         4
        25        26        30        46     9        0.000000       -0.823331         1
        25        26        30        46     9      180.000000        4.300639         2
        25        26        30        46     9        0.000000       -0.108809         3
        25        26        30        46     9      180.000000        0.143091         4
        26        27        24        44     9        0.000000        0.316355         1
        26        27        24        44     9      180.000000       12.234418         2
        26        27        24        44     9        0.000000       -0.058835         3
        26        27        24        44     9      180.000000       -0.044985         4
        26        27        28        29     9        0.000000       -1.319428         1
        26        27        28        29     9      180.000000       17.327302         2
        26        27        28        29     9        0.000000       -3.435198         3
        26        27        28        29     9      180.000000       -0.111589         4
        26        30        29        28     9        0.000000       -0.291525         1
        26        30        29        28     9      180.000000       26.614580         2
        26        30        29        28     9        0.000000       -3.837206         3
        26        30        29        28     9      180.000000       -0.994263         4
        26        30        29        31     9        0.000000        0.377896         1
        26        30        29        31     9      180.000000       24.616078         2
        26        30        29        31     9        0.000000        0.214537         3
        26        30        29        31     9      180.000000       -1.584096         4
        27        24        23        43     9        0.000000        0.078036         1
        27        24        23        43     9      180.000000       15.978809         2
        27        24        23        43     9        0.000000       -0.584532         3
        27        24        23        43     9      180.000000        0.065585         4
        27        26        25        45     9        0.000000        0.215769         1
        27        26        25        45     9      180.000000       13.343295         2
        27        26        25        45     9        0.000000       -0.140880         3
        27        26        25        45     9      180.000000       -0.042242         4
        27        26        30        29     9        0.000000        0.133378         1
        27        26        30        29     9      180.000000       17.537534         2
        27        26        30        29     9        0.000000       -4.574312         3
        27        26        30        29     9      180.000000       -0.278369         4
        27        26        30        46     9        0.000000        0.975465         1
        27        26        30        46     9      180.000000        7.887769         2
        27        26        30        46     9        0.000000        0.263333         3
        27        26        30        46     9      180.000000        0.045963         4
        27        28        29        30     9        0.000000       -0.240812         1
        27        28        29        30     9      180.000000       20.213013         2
        27        28        29        30     9        0.000000       -5.045919         3
        27        28        29        30     9      180.000000       -0.392955         4
        27        28        29        31     9        0.000000        1.440066         1
        27        28        29        31     9      180.000000       18.210317         2
        27        28        29        31     9        0.000000        0.514240         3
        27        28        29        31     9      180.000000       -1.039229         4
        28        27        24        44     9        0.000000        0.068749         1
        28        27        24        44     9      180.000000       10.414121         2
        28        27        24        44     9        0.000000       -0.009554         3
        28        27        24        44     9      180.000000       -0.047018         4
        28        27        26        30     9        0.000000        0.156099         1
        28        27        26        30     9      180.000000       16.118992         2
        28        27        26        30     9        0.000000       -2.634550         3
        28        27        26        30     9      180.000000       -0.529213         4
        28        29        30        46     9        0.000000        0.171497         1
        28        29        30        46     9      180.000000       13.970534         2
        28        29        30        46     9        0.000000        0.080455         3
        28        29        30        46     9      180.000000       -0.197035         4
        28        29        31        47     9        0.000000        3.758391         1
        28        29        31        47     9      180.000000        1.291476         2
        28        29        31        47     9        0.000000        0.888873         3
        28        29        31        47     9      180.000000        0.382567         4
        28        29        31        48     9        0.000000        3.758391         1
        28        29        31        48     9      180.000000        1.291476         2
        28        29        31        48     9        0.000000        0.888873         3
        28        29        31        48     9      180.000000        0.382567         4
        30        26        25        45     9        0.000000        0.038215         1
        30        26        25        45     9      180.000000       11.530571         2
        30        26        25        45     9        0.000000       -0.179396         3
        30        26        25        45     9      180.000000        0.107597         4
        30        29        31        47     9        0.000000        1.492595         1
        30        29        31        47     9      180.000000        3.627709         2
        30        29        31        47     9        0.000000       -0.032690         3
        30        29        31        47     9      180.000000        0.533652         4
        30        29        31        48     9        0.000000        1.492595         1
        30        29        31        48     9      180.000000        3.627709         2
        30        29        31        48     9        0.000000       -0.032690         3
        30        29        31        48     9      180.000000        0.533652         4
        31        29        30        46     9        0.000000        0.040626         1
        31        29        30        46     9      180.000000       14.906429         2
        31        29        30        46     9        0.000000        0.064892         3
        31        29        30        46     9      180.000000       -0.012016         4
        34         8         9        35     9        0.000000       -0.431715         1
        34         8         9        35     9      180.000000        6.869070         2
        34         8         9        35     9        0.000000       -0.569257         3
        34         8         9        35     9      180.000000        0.186659         4
        38        16        17        39     9        0.000000       -0.049751         1
        38        16        17        39     9      180.000000       11.944933         2
        38        16        17        39     9        0.000000       -0.710210         3
        38        16        17        39     9      180.000000        0.205813         4
        43        23        24        44     9        0.000000       -0.195638         1
        43        23        24        44     9      180.000000       12.324794         2
        43        23        24        44     9        0.000000       -0.760983         3
        43        23        24        44     9      180.000000        0.357372         4

[ dihedrals ] ; impropers
;       ai        aj        ak        al funct           phase               k        pn
         8         7         9        34     4      180.000000        4.409855         2
         8         9        34         7     4      180.000000        4.409855         2
         8        34         7         9     4      180.000000        4.409855         2
         9         8        10        35     4      180.000000        4.162411         2
         9        10        35         8     4      180.000000        4.162411         2
         9        35         8        10     4      180.000000        4.162411         2
        14        13        15        37     4      180.000000        3.547249         2
        14        15        37        13     4      180.000000        3.547249         2
        14        37        13        15     4      180.000000        3.547249         2
        16        15        17        38     4      180.000000        3.347116         2
        16        17        38        15     4      180.000000        3.347116         2
        16        38        15        17     4      180.000000        3.347116         2

[ pairs ]
;       ai        aj funct
         1         4     1
         1         7     1
         1         9     1
         1        13     1
         1        33     1
         1        36     1
         2         6     1
         2        10     1
         2        11     1
         2        14     1
         2        18     1
         3         5     1
         3         7     1
         3        13     1
         3        23     1
         3        25     1
         3        32     1
         3        36     1
         4         8     1
         4        10     1
         4        12     1
         4        24     1
         4        26     1
         4        43     1
         4        45     1
         5         8     1
         5        11     1
         5        12     1
         5        35     1
         6         9     1
         6        23     1
         6        25     1
         6        32     1
         6        33     1
         6        34     1
         7        10     1
         7        11     1
         7        35     1
        10        32     1
        10        34     1
        11        27     1
        11        30     1
        11        33     1
        11        44     1
        12        15     1
        12        17     1
        12        19     1
        12        32     1
        12        33     1
        12        37     1
        13        16     1
        13        20     1
        13        21     1
        13        22     1
        13        39     1
        14        17     1
        14        19     1
        14        36     1
        14        38     1
        15        18     1
        15        39     1
        16        19     1
        16        37     1
        17        20     1
        17        21     1
        17        22     1
        18        36     1
        18        37     1
        18        38     1
        18        40     1
        18        41     1
        18        42     1
        19        39     1
        20        40     1
        20        41     1
        20        42     1
        21        40     1
        21        41     1
        21        42     1
        23        26     1
        23        28     1
        23        45     1
        24        25     1
        24        29     1
        24        30     1
        25        28     1
        25        29     1
        25        43     1
        25        46     1
        26        31     1
        26        44     1
        27        31     1
        27        43     1
        27        45     1
        27        46     1
        28        44     1
        28        46     1
        28        47     1
        28        48     1
        30        45     1
        30        47     1
        30        48     1
        31        46     1
        34        35     1
        38        39     1
        43        44     1
