; ITP file created by ByteFF-ML, 2026-02-21 07:45:49.839824

[ atomtypes ]
;name           bonded.type        at.num        mass        charge   ptype           sigma         epsilon
 c0bf                                   6      0.0000       0.00000       A     3.31696e-01     4.13508e-01
 c1bf                                   6      0.0000       0.00000       A     3.31534e-01     4.11219e-01
 c2bf                                   6      0.0000       0.00000       A     3.31588e-01     4.14304e-01
 c3bf                                   6      0.0000       0.00000       A     3.31158e-01     4.10830e-01
 c4bf                                   6      0.0000       0.00000       A     3.31387e-01     4.12836e-01
 c5bf                                   6      0.0000       0.00000       A     3.31581e-01     4.11588e-01
 n6bf                                   7      0.0000       0.00000       A     3.38246e-01     3.93082e-01
 c7bf                                   6      0.0000       0.00000       A     3.31514e-01     4.13144e-01
 c8bf                                   6      0.0000       0.00000       A     3.31562e-01     4.13392e-01
 n9bf                                   7      0.0000       0.00000       A     3.38456e-01     3.92772e-01
 c10bf                                  6      0.0000       0.00000       A     3.31435e-01     4.09662e-01
 c11bf                                  6      0.0000       0.00000       A     3.31435e-01     4.13050e-01
 c12bf                                  6      0.0000       0.00000       A     3.31489e-01     4.12849e-01
 c13bf                                  6      0.0000       0.00000       A     3.31509e-01     4.13486e-01
 c14bf                                  6      0.0000       0.00000       A     3.31537e-01     4.12257e-01
 c15bf                                  6      0.0000       0.00000       A     3.31537e-01     4.13572e-01
 o16bf                                  8      0.0000       0.00000       A     3.15611e-01     3.03212e-01
 c17bf                                  6      0.0000       0.00000       A     3.31688e-01     4.11507e-01
 c18bf                                  6      0.0000       0.00000       A     3.31431e-01     4.11574e-01
 n19bf                                  7      0.0000       0.00000       A     3.27929e-01     6.45227e-01
 c20bf                                  6      0.0000       0.00000       A     3.39782e-01     4.50190e-01
 c21bf                                  6      0.0000       0.00000       A     3.31581e-01     4.12886e-01
 c22bf                                  6      0.0000       0.00000       A     3.31298e-01     4.15822e-01
 c23bf                                  6      0.0000       0.00000       A     3.31194e-01     4.12903e-01
 c24bf                                  6      0.0000       0.00000       A     3.31482e-01     4.12140e-01
 n25bf                                  7      0.0000       0.00000       A     3.38344e-01     3.92967e-01
 c26bf                                  6      0.0000       0.00000       A     3.31706e-01     4.11681e-01
 s27bf                                 16      0.0000       0.00000       A     4.05645e-01     2.55729e-01
 o28bf                                  8      0.0000       0.00000       A     3.04857e-01     6.11370e-01
 o29bf                                  8      0.0000       0.00000       A     3.04857e-01     6.11370e-01
 c30bf                                  6      0.0000       0.00000       A     3.39611e-01     4.49156e-01
 h31bf                                  1      0.0000       0.00000       A     2.62399e-01     6.76733e-02
 h32bf                                  1      0.0000       0.00000       A     2.62381e-01     6.75967e-02
 h33bf                                  1      0.0000       0.00000       A     2.53506e-01     6.72855e-02
 h34bf                                  1      0.0000       0.00000       A     2.53506e-01     6.72855e-02
 h35bf                                  1      0.0000       0.00000       A     2.62423e-01     6.72935e-02
 h36bf                                  1      0.0000       0.00000       A     2.62547e-01     6.71977e-02
 h37bf                                  1      0.0000       0.00000       A     2.62370e-01     6.74930e-02
 h38bf                                  1      0.0000       0.00000       A     2.53679e-01     6.73142e-02
 h39bf                                  1      0.0000       0.00000       A     1.10952e-01     4.04428e-02
 h40bf                                  1      0.0000       0.00000       A     2.60044e-01     8.69794e-02
 h41bf                                  1      0.0000       0.00000       A     2.60044e-01     8.69794e-02
 h42bf                                  1      0.0000       0.00000       A     2.60044e-01     8.69794e-02
 h43bf                                  1      0.0000       0.00000       A     2.62744e-01     6.79622e-02
 h44bf                                  1      0.0000       0.00000       A     2.53644e-01     6.69998e-02
 h45bf                                  1      0.0000       0.00000       A     2.53583e-01     6.80915e-02
 h46bf                                  1      0.0000       0.00000       A     2.42021e-01     8.71597e-02
 h47bf                                  1      0.0000       0.00000       A     2.42021e-01     8.71597e-02
 h48bf                                  1      0.0000       0.00000       A     2.42021e-01     8.71597e-02

[ moleculetype ]
;name             nrexcl
 70_flip               3

[ atoms ]
;       nr            type      resi   res      atom      cgnr      charge          mass ; qtot
         1            c0bf         1   UNL        c0         1    -0.14199       12.0110 ; qtot   -0.142
         2            c1bf         1   UNL        c1         2     0.30813       12.0110 ; qtot    0.166
         3            c2bf         1   UNL        c2         3    -0.13267       12.0110 ; qtot    0.033
         4            c3bf         1   UNL        c3         4     0.03066       12.0110 ; qtot    0.064
         5            c4bf         1   UNL        c4         5     0.25847       12.0110 ; qtot    0.323
         6            c5bf         1   UNL        c5         6     0.21857       12.0110 ; qtot    0.541
         7            n6bf         1   UNL        n6         7    -0.62228       14.0070 ; qtot   -0.081
         8            c7bf         1   UNL        c7         8     0.29317       12.0110 ; qtot    0.212
         9            c8bf         1   UNL        c8         9     0.29405       12.0110 ; qtot    0.506
        10            n9bf         1   UNL        n9        10    -0.62285       14.0070 ; qtot   -0.117
        11           c10bf         1   UNL       c10        11    -0.05964       12.0110 ; qtot   -0.176
        12           c11bf         1   UNL       c11        12    -0.07260       12.0110 ; qtot   -0.249
        13           c12bf         1   UNL       c12        13    -0.11213       12.0110 ; qtot   -0.361
        14           c13bf         1   UNL       c13        14    -0.03956       12.0110 ; qtot   -0.401
        15           c14bf         1   UNL       c14        15    -0.11053       12.0110 ; qtot   -0.511
        16           c15bf         1   UNL       c15        16     0.06698       12.0110 ; qtot   -0.444
        17           o16bf         1   UNL       o16        17    -0.18059       15.9990 ; qtot   -0.625
        18           c17bf         1   UNL       c17        18    -0.07219       12.0110 ; qtot   -0.697
        19           c18bf         1   UNL       c18        19    -0.12575       12.0110 ; qtot   -0.823
        20           n19bf         1   UNL       n19        20    -0.96404       14.0070 ; qtot   -1.787
        21           c20bf         1   UNL       c20        21    -0.02249       12.0110 ; qtot   -1.809
        22           c21bf         1   UNL       c21        22     0.35358       12.0110 ; qtot   -1.456
        23           c22bf         1   UNL       c22        23    -0.27733       12.0110 ; qtot   -1.733
        24           c23bf         1   UNL       c23        24    -0.03902       12.0110 ; qtot   -1.772
        25           c24bf         1   UNL       c24        25     0.28639       12.0110 ; qtot   -1.486
        26           n25bf         1   UNL       n25        26    -0.60355       14.0070 ; qtot   -2.089
        27           c26bf         1   UNL       c26        27     0.27846       12.0110 ; qtot   -1.811
        28           s27bf         1   UNL       s27        28     0.99436       32.0670 ; qtot   -0.816
        29           o28bf         1   UNL       o28        29    -0.51400       15.9990 ; qtot   -1.330
        30           o29bf         1   UNL       o29        30    -0.51400       15.9990 ; qtot   -1.844
        31           c30bf         1   UNL       c30        31    -0.29607       12.0110 ; qtot   -2.140
        32           h31bf         1   UNL       h31        32     0.14328        1.0080 ; qtot   -1.997
        33           h32bf         1   UNL       h32        33     0.12730        1.0080 ; qtot   -1.870
        34           h33bf         1   UNL       h33        34     0.03158        1.0080 ; qtot   -1.838
        35           h34bf         1   UNL       h34        35     0.03160        1.0080 ; qtot   -1.807
        36           h35bf         1   UNL       h35        36     0.12374        1.0080 ; qtot   -1.683
        37           h36bf         1   UNL       h36        37     0.13431        1.0080 ; qtot   -1.549
        38           h37bf         1   UNL       h37        38     0.12772        1.0080 ; qtot   -1.421
        39           h38bf         1   UNL       h38        39     0.23475        1.0080 ; qtot   -1.186
        40           h39bf         1   UNL       h39        40     0.51181        1.0080 ; qtot   -0.674
        41           h40bf         1   UNL       h40        41     0.04557        1.0080 ; qtot   -0.629
        42           h41bf         1   UNL       h41        42     0.04557        1.0080 ; qtot   -0.583
        43           h42bf         1   UNL       h42        43     0.04557        1.0080 ; qtot   -0.538
        44           h43bf         1   UNL       h43        44     0.15079        1.0080 ; qtot   -0.387
        45           h44bf         1   UNL       h44        45     0.03700        1.0080 ; qtot   -0.350
        46           h45bf         1   UNL       h45        46     0.03589        1.0080 ; qtot   -0.314
        47           h46bf         1   UNL       h46        47     0.10467        1.0080 ; qtot   -0.209
        48           h47bf         1   UNL       h47        48     0.10467        1.0080 ; qtot   -0.105
        49           h48bf         1   UNL       h48        49     0.10464        1.0080 ; qtot   -0.000

[ bonds ]
;       ai        aj funct               r               k
         1         2     1        0.138622   325678.790723
         1         5     1        0.141521   284459.010498
         1        32     1        0.108434   324306.120020
         2         3     1        0.142346   251378.136865
         2        20     1        0.140593   260287.140527
         3         4     1        0.138640   330236.066650
         3        33     1        0.108420   321509.091504
         4         6     1        0.143472   236573.482910
         4        11     1        0.148403   213135.294092
         5         6     1        0.143386   223579.461084
         5        10     1        0.136675   270922.835840
         6         7     1        0.136378   268382.250977
         7         8     1        0.131881   374103.202393
         8         9     1        0.142216   238192.510107
         8        34     1        0.108820   315940.162988
         9        10     1        0.131846   380187.239941
         9        35     1        0.108836   315483.763770
        11        12     1        0.141538   267490.137598
        11        14     1        0.140240   287333.441992
        12        13     1        0.139592   319275.386084
        12        36     1        0.108475   322246.909668
        13        16     1        0.139129   319809.750098
        13        37     1        0.108522   323229.449951
        14        15     1        0.140173   308281.890332
        14        38     1        0.108504   320855.750098
        15        16     1        0.140771   267794.361182
        15        19     1        0.145064   225469.053955
        16        17     1        0.137151   231796.460156
        17        18     1        0.138199   224628.959668
        18        19     1        0.136156   412662.194580
        18        39     1        0.108067   340529.334863
        19        21     1        0.149928   224622.294482
        20        22     1        0.138908   287909.073975
        20        40     1        0.101485   406811.208691
        21        41     1        0.109433   300066.295801
        21        42     1        0.109433   300066.295801
        21        43     1        0.109433   300066.295801
        22        23     1        0.141314   265581.391895
        22        27     1        0.141520   257222.712939
        23        24     1        0.139402   313134.068799
        23        28     1        0.180715   124483.640259
        24        25     1        0.139506   299656.731641
        24        44     1        0.108446   326160.114160
        25        26     1        0.133977   313656.532520
        25        45     1        0.108702   319547.177539
        26        27     1        0.133244   341315.111719
        27        46     1        0.108642   319937.129199
        28        29     1        0.147464   495020.215039
        28        30     1        0.147464   495020.215039
        28        31     1        0.180772   140787.539600
        31        47     1        0.109028   319230.108789
        31        48     1        0.109028   319230.108789
        31        49     1        0.109028   319230.108789

[ angles ]
;       ai        aj        ak funct           theta             cth
         1         2         3     1      119.340256      642.053685
         1         2        20     1      121.254745      492.361151
         1         5         6     1      120.564919      663.113437
         1         5        10     1      118.281189      431.308051
         2         1         5     1      120.257889      537.525444
         2         1        32     1      121.917053      423.581575
         2         3         4     1      122.429420      713.748800
         2         3        33     1      118.470383      447.200912
         2        20        22     1      126.297546      421.362177
         2        20        40     1      115.426346      433.799388
         3         2        20     1      119.236755      541.059908
         3         4         6     1      118.233109      534.183977
         3         4        11     1      119.199890      470.332329
         4         3        33     1      118.662170      416.165503
         4         6         5     1      118.969040      697.697450
         4         6         7     1      120.402367      430.999946
         4        11        12     1      120.048927      512.046017
         4        11        14     1      120.270409      430.413837
         5         1        32     1      117.843239      439.647833
         5         6         7     1      120.208412      782.715594
         5        10         9     1      116.661819      559.934704
         6         4        11     1      122.704613      441.892800
         6         5        10     1      121.322975      705.924740
         6         7         8     1      117.611557      602.010986
         7         8         9     1      122.256546      732.863901
         7         8        34     1      117.339157      362.478934
         8         9        10     1      122.299545      738.442163
         8         9        35     1      120.145851      429.987368
         9         8        34     1      120.142014      430.475797
        10         9        35     1      117.380966      342.428057
        11        12        13     1      122.008934      646.890669
        11        12        36     1      118.920654      413.227905
        11        14        15     1      119.293114      713.674742
        11        14        38     1      119.796066      404.986250
        12        11        14     1      119.622726      647.728477
        12        13        16     1      116.707863      781.361553
        12        13        37     1      121.664978      425.481536
        13        12        36     1      119.296951      405.956980
        13        16        15     1      123.013268      567.573045
        13        16        17     1      126.663551      552.449011
        14        15        16     1      119.209244      711.987889
        14        15        19     1      134.711823      453.590296
        15        14        38     1      120.914024      419.184404
        15        16        17     1      110.167862      187.580028
        15        19        18     1      105.242065      411.916575
        15        19        21     1      126.689781      531.239197
        16        13        37     1      121.616127      440.490685
        16        15        19     1      106.025391      392.424355
        16        17        18     1      105.908859      634.934769
        17        18        19     1      112.704727      218.346020
        17        18        39     1      115.059036      427.618322
        18        19        21     1      127.866135      430.255188
        19        18        39     1      132.302887      329.444033
        19        21        41     1      111.169228      480.066341
        19        21        42     1      111.169228      480.066341
        19        21        43     1      111.169228      480.066341
        20        22        23     1      121.389572      543.101089
        20        22        27     1      122.505417      578.362793
        22        20        40     1      114.551170      450.222622
        22        23        24     1      120.275772      760.585008
        22        23        28     1      121.663406      744.979280
        22        27        26     1      124.232620      770.104221
        22        27        46     1      119.153419      415.430290
        23        22        27     1      115.672928      673.644813
        23        24        25     1      118.684898      679.603897
        23        24        44     1      120.270645      343.599700
        23        28        29     1      107.938034      640.902216
        23        28        30     1      107.938034      640.902216
        23        28        31     1      103.486069      654.077513
        24        23        28     1      117.699501      539.880923
        24        25        26     1      122.754715      730.070077
        24        25        45     1      120.538696      415.343272
        25        24        44     1      121.212906      424.346412
        25        26        27     1      118.320412      693.264782
        26        25        45     1      116.530663      356.374383
        26        27        46     1      116.504784      340.209521
        28        31        47     1      107.672256      569.998368
        28        31        48     1      107.672256      569.998368
        28        31        49     1      107.672256      569.998368
        29        28        30     1      120.015259      741.792249
        29        28        31     1      107.539932      732.341412
        30        28        31     1      107.539932      732.341412
        41        21        42     1      107.665726      361.300971
        41        21        43     1      107.665726      361.300971
        42        21        43     1      107.665726      361.300971
        47        31        48     1      111.147987      344.776258
        47        31        49     1      111.147987      344.776258
        48        31        49     1      111.147987      344.776258

[ dihedrals ] ; propers for gromacs 4.5 or higher, use funct 9
;       ai        aj        ak        al funct           phase               k        pn
         1         2         3         4     9        0.000000        0.157508         1
         1         2         3         4     9      180.000000       14.110915         2
         1         2         3         4     9        0.000000       -0.831495         3
         1         2         3         4     9      180.000000       -0.233543         4
         1         2         3        33     9        0.000000       -0.064753         1
         1         2         3        33     9      180.000000       11.935983         2
         1         2         3        33     9        0.000000       -0.432953         3
         1         2         3        33     9      180.000000        0.110544         4
         1         2        20        22     9        0.000000       -0.167870         1
         1         2        20        22     9      180.000000        3.526327         2
         1         2        20        22     9        0.000000       -0.356689         3
         1         2        20        22     9      180.000000        0.139573         4
         1         2        20        40     9        0.000000       -0.457732         1
         1         2        20        40     9      180.000000        3.512781         2
         1         2        20        40     9        0.000000       -0.099182         3
         1         2        20        40     9      180.000000        0.073474         4
         1         5         6         4     9        0.000000        0.174093         1
         1         5         6         4     9      180.000000       11.459543         2
         1         5         6         4     9        0.000000       -0.452764         3
         1         5         6         4     9      180.000000       -0.210325         4
         1         5         6         7     9        0.000000        0.340548         1
         1         5         6         7     9      180.000000       11.179590         2
         1         5         6         7     9        0.000000       -0.065208         3
         1         5         6         7     9      180.000000       -0.244500         4
         1         5        10         9     9        0.000000       -0.023334         1
         1         5        10         9     9      180.000000       18.424194         2
         1         5        10         9     9        0.000000        0.154347         3
         1         5        10         9     9      180.000000       -0.275637         4
         2         1         5         6     9        0.000000       -0.535156         1
         2         1         5         6     9      180.000000       13.643159         2
         2         1         5         6     9        0.000000       -0.954561         3
         2         1         5         6     9      180.000000       -0.185752         4
         2         1         5        10     9        0.000000       -0.306896         1
         2         1         5        10     9      180.000000       14.010283         2
         2         1         5        10     9        0.000000       -0.425194         3
         2         1         5        10     9      180.000000       -0.392179         4
         2         3         4         6     9        0.000000       -0.221801         1
         2         3         4         6     9      180.000000       19.341021         2
         2         3         4         6     9        0.000000       -1.519616         3
         2         3         4         6     9      180.000000       -0.315681         4
         2         3         4        11     9        0.000000        0.350687         1
         2         3         4        11     9      180.000000       19.312535         2
         2         3         4        11     9        0.000000        0.043392         3
         2         3         4        11     9      180.000000       -0.794946         4
         2        20        22        23     9        0.000000       -1.816149         1
         2        20        22        23     9      180.000000        4.619861         2
         2        20        22        23     9        0.000000       -0.590150         3
         2        20        22        23     9      180.000000        0.059912         4
         2        20        22        27     9        0.000000        1.786048         1
         2        20        22        27     9      180.000000        3.116501         2
         2        20        22        27     9        0.000000       -0.286578         3
         2        20        22        27     9      180.000000        0.145436         4
         3         2         1         5     9        0.000000       -0.172695         1
         3         2         1         5     9      180.000000       17.269977         2
         3         2         1         5     9        0.000000       -1.150046         3
         3         2         1         5     9      180.000000       -0.415713         4
         3         2         1        32     9        0.000000        0.057193         1
         3         2         1        32     9      180.000000       13.340746         2
         3         2         1        32     9        0.000000       -0.358398         3
         3         2         1        32     9      180.000000        0.131357         4
         3         2        20        22     9        0.000000       -0.235194         1
         3         2        20        22     9      180.000000        3.390104         2
         3         2        20        22     9        0.000000        0.020231         3
         3         2        20        22     9      180.000000        0.120802         4
         3         2        20        40     9        0.000000       -0.401551         1
         3         2        20        40     9      180.000000        3.316238         2
         3         2        20        40     9        0.000000        0.053714         3
         3         2        20        40     9      180.000000        0.093664         4
         3         4         6         5     9        0.000000       -0.396451         1
         3         4         6         5     9      180.000000       10.504707         2
         3         4         6         5     9        0.000000       -0.858838         3
         3         4         6         5     9      180.000000        0.031998         4
         3         4         6         7     9        0.000000        0.052327         1
         3         4         6         7     9      180.000000        9.521045         2
         3         4         6         7     9        0.000000       -0.305150         3
         3         4         6         7     9      180.000000       -0.084438         4
         3         4        11        12     9        0.000000       -0.400041         1
         3         4        11        12     9      180.000000        4.478006         2
         3         4        11        12     9        0.000000        0.025781         3
         3         4        11        12     9      180.000000        0.601496         4
         3         4        11        14     9        0.000000       -0.283827         1
         3         4        11        14     9      180.000000        4.282709         2
         3         4        11        14     9        0.000000        0.184229         3
         3         4        11        14     9      180.000000        0.493061         4
         4         3         2        20     9        0.000000        0.204466         1
         4         3         2        20     9      180.000000       15.529948         2
         4         3         2        20     9        0.000000        0.098558         3
         4         3         2        20     9      180.000000       -0.442691         4
         4         6         5        10     9        0.000000       -0.277503         1
         4         6         5        10     9      180.000000       10.277167         2
         4         6         5        10     9        0.000000        0.078718         3
         4         6         5        10     9      180.000000       -0.282062         4
         4         6         7         8     9        0.000000        0.616102         1
         4         6         7         8     9      180.000000       16.382268         2
         4         6         7         8     9        0.000000        0.386816         3
         4         6         7         8     9      180.000000       -0.383697         4
         4        11        12        13     9        0.000000        0.249138         1
         4        11        12        13     9      180.000000       14.890931         2
         4        11        12        13     9        0.000000       -0.109777         3
         4        11        12        13     9      180.000000       -0.163559         4
         4        11        12        36     9        0.000000       -0.021898         1
         4        11        12        36     9      180.000000       12.820225         2
         4        11        12        36     9        0.000000       -0.195205         3
         4        11        12        36     9      180.000000        0.170569         4
         4        11        14        15     9        0.000000        0.214984         1
         4        11        14        15     9      180.000000       16.826956         2
         4        11        14        15     9        0.000000        0.042538         3
         4        11        14        15     9      180.000000       -0.503029         4
         4        11        14        38     9        0.000000       -0.001972         1
         4        11        14        38     9      180.000000       12.863218         2
         4        11        14        38     9        0.000000       -0.126209         3
         4        11        14        38     9      180.000000        0.167524         4
         5         1         2        20     9        0.000000        0.246511         1
         5         1         2        20     9      180.000000       19.522849         2
         5         1         2        20     9        0.000000        0.055608         3
         5         1         2        20     9      180.000000       -0.772829         4
         5         6         4        11     9        0.000000        0.162686         1
         5         6         4        11     9      180.000000       12.487372         2
         5         6         4        11     9        0.000000       -0.041594         3
         5         6         4        11     9      180.000000       -0.421184         4
         5         6         7         8     9        0.000000        0.188120         1
         5         6         7         8     9      180.000000       16.793790         2
         5         6         7         8     9        0.000000       -0.050993         3
         5         6         7         8     9      180.000000       -0.239062         4
         5        10         9         8     9        0.000000       -0.161990         1
         5        10         9         8     9      180.000000       25.805864         2
         5        10         9         8     9        0.000000       -0.989158         3
         5        10         9         8     9      180.000000       -0.201960         4
         5        10         9        35     9        0.000000        0.808513         1
         5        10         9        35     9      180.000000       23.535886         2
         5        10         9        35     9        0.000000        0.064004         3
         5        10         9        35     9      180.000000       -0.475717         4
         6         4         3        33     9        0.000000        0.201350         1
         6         4         3        33     9      180.000000       15.623436         2
         6         4         3        33     9        0.000000       -0.321889         3
         6         4         3        33     9      180.000000        0.172138         4
         6         4        11        12     9        0.000000       -0.028753         1
         6         4        11        12     9      180.000000        4.035566         2
         6         4        11        12     9        0.000000       -0.153984         3
         6         4        11        12     9      180.000000        0.703169         4
         6         4        11        14     9        0.000000        0.014430         1
         6         4        11        14     9      180.000000        3.898933         2
         6         4        11        14     9        0.000000       -0.185590         3
         6         4        11        14     9      180.000000        0.699205         4
         6         5         1        32     9        0.000000       -0.170721         1
         6         5         1        32     9      180.000000       10.545502         2
         6         5         1        32     9        0.000000       -0.262492         3
         6         5         1        32     9      180.000000       -0.003795         4
         6         5        10         9     9        0.000000       -0.107916         1
         6         5        10         9     9      180.000000       16.440884         2
         6         5        10         9     9        0.000000        0.043441         3
         6         5        10         9     9      180.000000       -0.231039         4
         6         7         8         9     9        0.000000        0.103245         1
         6         7         8         9     9      180.000000       25.050131         2
         6         7         8         9     9        0.000000       -0.948796         3
         6         7         8         9     9      180.000000       -0.159021         4
         6         7         8        34     9        0.000000        0.727425         1
         6         7         8        34     9      180.000000       22.903268         2
         6         7         8        34     9        0.000000        0.106514         3
         6         7         8        34     9      180.000000       -0.552430         4
         7         6         4        11     9        0.000000       -0.490676         1
         7         6         4        11     9      180.000000       12.266146         2
         7         6         4        11     9        0.000000       -0.169858         3
         7         6         4        11     9      180.000000       -0.447949         4
         7         6         5        10     9        0.000000        0.159900         1
         7         6         5        10     9      180.000000       11.086216         2
         7         6         5        10     9        0.000000        0.160518         3
         7         6         5        10     9      180.000000       -0.397158         4
         7         8         9        10     9        0.000000       -0.713203         1
         7         8         9        10     9      180.000000       11.742392         2
         7         8         9        10     9        0.000000       -0.552181         3
         7         8         9        10     9      180.000000       -0.521535         4
         7         8         9        35     9        0.000000       -0.026031         1
         7         8         9        35     9      180.000000        9.508286         2
         7         8         9        35     9        0.000000       -0.255749         3
         7         8         9        35     9      180.000000       -0.134502         4
        10         5         1        32     9        0.000000        0.016940         1
        10         5         1        32     9      180.000000       11.980067         2
        10         5         1        32     9        0.000000       -0.349905         3
        10         5         1        32     9      180.000000        0.012863         4
        10         9         8        34     9        0.000000       -0.199022         1
        10         9         8        34     9      180.000000        9.267615         2
        10         9         8        34     9        0.000000       -0.318099         3
        10         9         8        34     9      180.000000       -0.090079         4
        11         4         3        33     9        0.000000        0.007555         1
        11         4         3        33     9      180.000000       14.954869         2
        11         4         3        33     9        0.000000       -0.134828         3
        11         4         3        33     9      180.000000        0.092562         4
        11        12        13        16     9        0.000000       -0.127787         1
        11        12        13        16     9      180.000000       20.635229         2
        11        12        13        16     9        0.000000       -1.729032         3
        11        12        13        16     9      180.000000       -0.577213         4
        11        12        13        37     9        0.000000        0.011820         1
        11        12        13        37     9      180.000000       14.357787         2
        11        12        13        37     9        0.000000       -0.467606         3
        11        12        13        37     9      180.000000        0.116516         4
        11        14        15        16     9        0.000000       -0.058496         1
        11        14        15        16     9      180.000000       19.235026         2
        11        14        15        16     9        0.000000       -1.966082         3
        11        14        15        16     9      180.000000       -0.498520         4
        11        14        15        19     9        0.000000       -0.149908         1
        11        14        15        19     9      180.000000       13.856420         2
        11        14        15        19     9        0.000000       -0.662942         3
        11        14        15        19     9      180.000000       -0.189688         4
        12        11        14        15     9        0.000000       -0.121987         1
        12        11        14        15     9      180.000000       20.660080         2
        12        11        14        15     9        0.000000       -1.544942         3
        12        11        14        15     9      180.000000       -0.443258         4
        12        11        14        38     9        0.000000        0.090755         1
        12        11        14        38     9      180.000000       13.873378         2
        12        11        14        38     9        0.000000       -0.462091         3
        12        11        14        38     9      180.000000        0.100182         4
        12        13        16        15     9        0.000000       -0.234895         1
        12        13        16        15     9      180.000000       17.662895         2
        12        13        16        15     9        0.000000       -2.055167         3
        12        13        16        15     9      180.000000       -0.285183         4
        12        13        16        17     9        0.000000        0.351967         1
        12        13        16        17     9      180.000000       16.631470         2
        12        13        16        17     9        0.000000        0.076747         3
        12        13        16        17     9      180.000000       -0.265671         4
        13        12        11        14     9        0.000000       -0.062968         1
        13        12        11        14     9      180.000000       17.714289         2
        13        12        11        14     9        0.000000       -1.297041         3
        13        12        11        14     9      180.000000       -0.292761         4
        13        16        15        14     9        0.000000       -0.213629         1
        13        16        15        14     9      180.000000       11.361062         2
        13        16        15        14     9        0.000000       -1.642791         3
        13        16        15        14     9      180.000000       -0.032581         4
        13        16        15        19     9        0.000000        0.223384         1
        13        16        15        19     9      180.000000       11.511072         2
        13        16        15        19     9        0.000000       -2.488888         3
        13        16        15        19     9      180.000000        0.033066         4
        13        16        17        18     9        0.000000        0.766426         1
        13        16        17        18     9      180.000000        5.048000         2
        13        16        17        18     9        0.000000       -0.291620         3
        13        16        17        18     9      180.000000        0.137732         4
        14        11        12        36     9        0.000000        0.073951         1
        14        11        12        36     9      180.000000       13.540155         2
        14        11        12        36     9        0.000000       -0.637403         3
        14        11        12        36     9      180.000000        0.129361         4
        14        15        16        17     9        0.000000        0.561408         1
        14        15        16        17     9      180.000000       11.356395         2
        14        15        16        17     9        0.000000       -1.590248         3
        14        15        16        17     9      180.000000        0.023529         4
        14        15        19        18     9        0.000000       -0.088235         1
        14        15        19        18     9      180.000000        3.397631         2
        14        15        19        18     9        0.000000       -0.852713         3
        14        15        19        18     9      180.000000        0.104021         4
        14        15        19        21     9        0.000000       -0.406263         1
        14        15        19        21     9      180.000000        5.276706         2
        14        15        19        21     9        0.000000        0.066523         3
        14        15        19        21     9      180.000000        0.127079         4
        15        16        13        37     9        0.000000        0.170267         1
        15        16        13        37     9      180.000000       11.715947         2
        15        16        13        37     9        0.000000       -0.438298         3
        15        16        13        37     9      180.000000       -0.032529         4
        15        16        17        18     9        0.000000        0.139160         1
        15        16        17        18     9      180.000000       21.230017         2
        15        16        17        18     9        0.000000       -5.658721         3
        15        16        17        18     9      180.000000       -0.216372         4
        15        19        18        17     9        0.000000       -0.431187         1
        15        19        18        17     9      180.000000       36.778724         2
        15        19        18        17     9        0.000000       -5.941988         3
        15        19        18        17     9      180.000000       -1.029166         4
        15        19        18        39     9        0.000000        0.360930         1
        15        19        18        39     9      180.000000       18.610366         2
        15        19        18        39     9        0.000000       -0.133016         3
        15        19        18        39     9      180.000000       -0.894327         4
        15        19        21        41     9        0.000000       -0.016126         1
        15        19        21        41     9      180.000000        0.025235         2
        15        19        21        41     9        0.000000        0.440456         3
        15        19        21        41     9      180.000000        0.012364         4
        15        19        21        42     9        0.000000       -0.016126         1
        15        19        21        42     9      180.000000        0.025235         2
        15        19        21        42     9        0.000000        0.440456         3
        15        19        21        42     9      180.000000        0.012364         4
        15        19        21        43     9        0.000000       -0.016126         1
        15        19        21        43     9      180.000000        0.025235         2
        15        19        21        43     9        0.000000        0.440456         3
        15        19        21        43     9      180.000000        0.012364         4
        16        13        12        36     9        0.000000        0.091832         1
        16        13        12        36     9      180.000000       16.525753         2
        16        13        12        36     9        0.000000       -0.514236         3
        16        13        12        36     9      180.000000       -0.055200         4
        16        15        14        38     9        0.000000        0.335111         1
        16        15        14        38     9      180.000000       13.815991         2
        16        15        14        38     9        0.000000       -0.204757         3
        16        15        14        38     9      180.000000       -0.098369         4
        16        15        19        18     9        0.000000       -0.066883         1
        16        15        19        18     9      180.000000       23.170510         2
        16        15        19        18     9        0.000000       -9.321144         3
        16        15        19        18     9      180.000000        0.187710         4
        16        15        19        21     9        0.000000        0.764970         1
        16        15        19        21     9      180.000000       12.299209         2
        16        15        19        21     9        0.000000        0.465616         3
        16        15        19        21     9      180.000000       -0.312292         4
        16        17        18        19     9        0.000000        0.219709         1
        16        17        18        19     9      180.000000       22.475308         2
        16        17        18        19     9        0.000000       -5.743913         3
        16        17        18        19     9      180.000000       -0.706963         4
        16        17        18        39     9        0.000000        0.983292         1
        16        17        18        39     9      180.000000        6.569743         2
        16        17        18        39     9        0.000000        0.525218         3
        16        17        18        39     9      180.000000        0.186679         4
        17        16        13        37     9        0.000000        0.188694         1
        17        16        13        37     9      180.000000       11.536899         2
        17        16        13        37     9        0.000000       -0.055711         3
        17        16        13        37     9      180.000000        0.057629         4
        17        16        15        19     9        0.000000       -0.017846         1
        17        16        15        19     9      180.000000       19.772239         2
        17        16        15        19     9        0.000000       -5.756937         3
        17        16        15        19     9      180.000000       -0.188408         4
        17        18        19        21     9        0.000000        0.689408         1
        17        18        19        21     9      180.000000       21.729638         2
        17        18        19        21     9        0.000000        0.627773         3
        17        18        19        21     9      180.000000       -1.239819         4
        18        19        21        41     9        0.000000       -0.059045         1
        18        19        21        41     9      180.000000       -0.026031         2
        18        19        21        41     9        0.000000       -0.363785         3
        18        19        21        41     9      180.000000        0.029970         4
        18        19        21        42     9        0.000000       -0.059045         1
        18        19        21        42     9      180.000000       -0.026031         2
        18        19        21        42     9        0.000000       -0.363785         3
        18        19        21        42     9      180.000000        0.029970         4
        18        19        21        43     9        0.000000       -0.059045         1
        18        19        21        43     9      180.000000       -0.026031         2
        18        19        21        43     9        0.000000       -0.363785         3
        18        19        21        43     9      180.000000        0.029970         4
        19        15        14        38     9        0.000000        0.045425         1
        19        15        14        38     9      180.000000       10.360083         2
        19        15        14        38     9        0.000000       -0.024262         3
        19        15        14        38     9      180.000000        0.103478         4
        20         2         1        32     9        0.000000       -0.006423         1
        20         2         1        32     9      180.000000       15.238161         2
        20         2         1        32     9        0.000000       -0.072527         3
        20         2         1        32     9      180.000000        0.161232         4
        20         2         3        33     9        0.000000       -0.058685         1
        20         2         3        33     9      180.000000       14.053045         2
        20         2         3        33     9        0.000000       -0.041462         3
        20         2         3        33     9      180.000000        0.138031         4
        20        22        23        24     9        0.000000        0.142200         1
        20        22        23        24     9      180.000000       15.897986         2
        20        22        23        24     9        0.000000        0.030266         3
        20        22        23        24     9      180.000000       -0.460852         4
        20        22        23        28     9        0.000000       -0.927876         1
        20        22        23        28     9      180.000000       13.516794         2
        20        22        23        28     9        0.000000       -0.073923         3
        20        22        23        28     9      180.000000       -0.622706         4
        20        22        27        26     9        0.000000        0.186749         1
        20        22        27        26     9      180.000000       16.683917         2
        20        22        27        26     9        0.000000        0.179116         3
        20        22        27        26     9      180.000000       -0.684725         4
        20        22        27        46     9        0.000000       -0.299543         1
        20        22        27        46     9      180.000000       14.371221         2
        20        22        27        46     9        0.000000       -0.253274         3
        20        22        27        46     9      180.000000        0.145399         4
        21        19        18        39     9        0.000000       -0.160733         1
        21        19        18        39     9      180.000000       12.580602         2
        21        19        18        39     9        0.000000       -0.011245         3
        21        19        18        39     9      180.000000       -0.030738         4
        22        23        24        25     9        0.000000       -0.049559         1
        22        23        24        25     9      180.000000       18.886869         2
        22        23        24        25     9        0.000000       -2.021566         3
        22        23        24        25     9      180.000000       -0.405198         4
        22        23        24        44     9        0.000000        0.229105         1
        22        23        24        44     9      180.000000       14.976778         2
        22        23        24        44     9        0.000000       -0.507226         3
        22        23        24        44     9      180.000000        0.085320         4
        22        23        28        29     9        0.000000       -1.334283         1
        22        23        28        29     9      180.000000        0.814377         2
        22        23        28        29     9        0.000000        0.785313         3
        22        23        28        29     9      180.000000       -0.187783         4
        22        23        28        30     9        0.000000       -1.334283         1
        22        23        28        30     9      180.000000        0.814377         2
        22        23        28        30     9        0.000000        0.785313         3
        22        23        28        30     9      180.000000       -0.187783         4
        22        23        28        31     9        0.000000        3.729087         1
        22        23        28        31     9      180.000000       -2.195929         2
        22        23        28        31     9        0.000000        0.799428         3
        22        23        28        31     9      180.000000        0.054292         4
        22        27        26        25     9        0.000000        0.319721         1
        22        27        26        25     9      180.000000       22.949105         2
        22        27        26        25     9        0.000000       -0.741216         3
        22        27        26        25     9      180.000000        0.175923         4
        23        22        20        40     9        0.000000        2.440460         1
        23        22        20        40     9      180.000000        3.205589         2
        23        22        20        40     9        0.000000       -0.727467         3
        23        22        20        40     9      180.000000        0.027702         4
        23        22        27        26     9        0.000000       -0.510165         1
        23        22        27        26     9      180.000000       14.375533         2
        23        22        27        26     9        0.000000       -0.595359         3
        23        22        27        26     9      180.000000       -0.489937         4
        23        22        27        46     9        0.000000        0.058995         1
        23        22        27        46     9      180.000000       12.296400         2
        23        22        27        46     9        0.000000       -0.329284         3
        23        22        27        46     9      180.000000        0.069067         4
        23        24        25        26     9        0.000000       -0.220827         1
        23        24        25        26     9      180.000000       18.549630         2
        23        24        25        26     9        0.000000       -1.222989         3
        23        24        25        26     9      180.000000       -0.581963         4
        23        24        25        45     9        0.000000        0.008007         1
        23        24        25        45     9      180.000000       14.871302         2
        23        24        25        45     9        0.000000       -0.365301         3
        23        24        25        45     9      180.000000       -0.122425         4
        23        28        31        47     9        0.000000        0.134670         1
        23        28        31        47     9      180.000000       -0.180389         2
        23        28        31        47     9        0.000000        0.326690         3
        23        28        31        47     9      180.000000       -0.016353         4
        23        28        31        48     9        0.000000        0.134670         1
        23        28        31        48     9      180.000000       -0.180389         2
        23        28        31        48     9        0.000000        0.326690         3
        23        28        31        48     9      180.000000       -0.016353         4
        23        28        31        49     9        0.000000        0.134670         1
        23        28        31        49     9      180.000000       -0.180389         2
        23        28        31        49     9        0.000000        0.326690         3
        23        28        31        49     9      180.000000       -0.016353         4
        24        23        22        27     9        0.000000       -0.037262         1
        24        23        22        27     9      180.000000       14.380148         2
        24        23        22        27     9        0.000000       -0.900345         3
        24        23        22        27     9      180.000000       -0.221953         4
        24        23        28        29     9        0.000000       -0.090526         1
        24        23        28        29     9      180.000000        0.655865         2
        24        23        28        29     9        0.000000       -0.321289         3
        24        23        28        29     9      180.000000       -0.045697         4
        24        23        28        30     9        0.000000       -0.090526         1
        24        23        28        30     9      180.000000        0.655865         2
        24        23        28        30     9        0.000000       -0.321289         3
        24        23        28        30     9      180.000000       -0.045697         4
        24        23        28        31     9        0.000000        0.119865         1
        24        23        28        31     9      180.000000       -0.559450         2
        24        23        28        31     9        0.000000       -0.551232         3
        24        23        28        31     9      180.000000        0.255504         4
        24        25        26        27     9        0.000000        0.177563         1
        24        25        26        27     9      180.000000       22.523860         2
        24        25        26        27     9        0.000000       -0.901753         3
        24        25        26        27     9      180.000000       -0.193725         4
        25        24        23        28     9        0.000000        0.192524         1
        25        24        23        28     9      180.000000       13.995354         2
        25        24        23        28     9        0.000000        0.189775         3
        25        24        23        28     9      180.000000       -0.443899         4
        25        26        27        46     9        0.000000        1.115355         1
        25        26        27        46     9      180.000000       20.962220         2
        25        26        27        46     9        0.000000        0.247396         3
        25        26        27        46     9      180.000000       -0.016300         4
        26        25        24        44     9        0.000000        0.066372         1
        26        25        24        44     9      180.000000       14.573595         2
        26        25        24        44     9        0.000000       -0.318036         3
        26        25        24        44     9      180.000000       -0.017204         4
        27        22        20        40     9        0.000000       -1.272590         1
        27        22        20        40     9      180.000000        2.989698         2
        27        22        20        40     9        0.000000       -0.423807         3
        27        22        20        40     9      180.000000        0.040258         4
        27        22        23        28     9        0.000000        0.366400         1
        27        22        23        28     9      180.000000       11.025740         2
        27        22        23        28     9        0.000000        0.150288         3
        27        22        23        28     9      180.000000       -0.363523         4
        27        26        25        45     9        0.000000        0.988694         1
        27        26        25        45     9      180.000000       20.417146         2
        27        26        25        45     9        0.000000        0.253449         3
        27        26        25        45     9      180.000000       -0.430136         4
        28        23        24        44     9        0.000000       -0.032266         1
        28        23        24        44     9      180.000000       12.082714         2
        28        23        24        44     9        0.000000       -0.269977         3
        28        23        24        44     9      180.000000        0.014566         4
        29        28        31        47     9        0.000000       -0.020339         1
        29        28        31        47     9      180.000000       -0.042566         2
        29        28        31        47     9        0.000000        0.357266         3
        29        28        31        47     9      180.000000        0.004050         4
        29        28        31        48     9        0.000000       -0.020339         1
        29        28        31        48     9      180.000000       -0.042566         2
        29        28        31        48     9        0.000000        0.357266         3
        29        28        31        48     9      180.000000        0.004050         4
        29        28        31        49     9        0.000000       -0.020339         1
        29        28        31        49     9      180.000000       -0.042566         2
        29        28        31        49     9        0.000000        0.357266         3
        29        28        31        49     9      180.000000        0.004050         4
        30        28        31        47     9        0.000000       -0.020339         1
        30        28        31        47     9      180.000000       -0.042566         2
        30        28        31        47     9        0.000000        0.357266         3
        30        28        31        47     9      180.000000        0.004050         4
        30        28        31        48     9        0.000000       -0.020339         1
        30        28        31        48     9      180.000000       -0.042566         2
        30        28        31        48     9        0.000000        0.357266         3
        30        28        31        48     9      180.000000        0.004050         4
        30        28        31        49     9        0.000000       -0.020339         1
        30        28        31        49     9      180.000000       -0.042566         2
        30        28        31        49     9        0.000000        0.357266         3
        30        28        31        49     9      180.000000        0.004050         4
        34         8         9        35     9        0.000000       -0.431715         1
        34         8         9        35     9      180.000000        6.869070         2
        34         8         9        35     9        0.000000       -0.569257         3
        34         8         9        35     9      180.000000        0.186659         4
        36        12        13        37     9        0.000000       -0.132599         1
        36        12        13        37     9      180.000000       12.322035         2
        36        12        13        37     9        0.000000       -0.762243         3
        36        12        13        37     9      180.000000        0.280357         4
        44        24        25        45     9        0.000000       -0.049751         1
        44        24        25        45     9      180.000000       11.944935         2
        44        24        25        45     9        0.000000       -0.710210         3
        44        24        25        45     9      180.000000        0.205813         4

[ dihedrals ] ; impropers
;       ai        aj        ak        al funct           phase               k        pn
         4         3         6        11     4      180.000000        0.288714         2
         4         6        11         3     4      180.000000        0.288714         2
         4        11         3         6     4      180.000000        0.288714         2
         8         7         9        34     4      180.000000        4.409855         2
         8         9        34         7     4      180.000000        4.409855         2
         8        34         7         9     4      180.000000        4.409855         2
         9         8        10        35     4      180.000000        4.162411         2
         9        10        35         8     4      180.000000        4.162411         2
         9        35         8        10     4      180.000000        4.162411         2
        25        24        26        45     4      180.000000        3.347115         2
        25        26        45        24     4      180.000000        3.347115         2
        25        45        24        26     4      180.000000        3.347115         2
        27        22        26        46     4      180.000000        3.547247         2
        27        26        46        22     4      180.000000        3.547247         2
        27        46        22        26     4      180.000000        3.547247         2

[ pairs ]
;       ai        aj funct
         1         4     1
         1         7     1
         1         9     1
         1        22     1
         1        33     1
         1        40     1
         2         6     1
         2        10     1
         2        11     1
         2        23     1
         2        27     1
         3         5     1
         3         7     1
         3        12     1
         3        14     1
         3        22     1
         3        32     1
         3        40     1
         4         8     1
         4        10     1
         4        13     1
         4        15     1
         4        20     1
         4        36     1
         4        38     1
         5         8     1
         5        11     1
         5        20     1
         5        35     1
         6         9     1
         6        12     1
         6        14     1
         6        32     1
         6        33     1
         6        34     1
         7        10     1
         7        11     1
         7        35     1
        10        32     1
        10        34     1
        11        16     1
        11        19     1
        11        33     1
        11        37     1
        12        15     1
        12        17     1
        12        38     1
        13        14     1
        13        18     1
        13        19     1
        14        17     1
        14        18     1
        14        21     1
        14        36     1
        15        37     1
        15        39     1
        15        41     1
        15        42     1
        15        43     1
        16        21     1
        16        36     1
        16        38     1
        16        39     1
        17        21     1
        17        37     1
        18        41     1
        18        42     1
        18        43     1
        19        38     1
        20        24     1
        20        26     1
        20        28     1
        20        32     1
        20        33     1
        20        46     1
        21        39     1
        22        25     1
        22        29     1
        22        30     1
        22        31     1
        22        44     1
        23        26     1
        23        40     1
        23        45     1
        23        46     1
        23        47     1
        23        48     1
        23        49     1
        24        27     1
        24        29     1
        24        30     1
        24        31     1
        25        28     1
        25        46     1
        26        44     1
        27        28     1
        27        40     1
        27        45     1
        28        44     1
        29        47     1
        29        48     1
        29        49     1
        30        47     1
        30        48     1
        30        49     1
        34        35     1
        36        37     1
        44        45     1
