; ITP file created by ByteFF-ML, 2025-12-06 08:16:33.143083

[ atomtypes ]
;name           bonded.type        at.num        mass        charge   ptype           sigma         epsilon
 n0bf                                   7      0.0000       0.00000       A     3.38436e-01     3.92311e-01
 n1bf                                   7      0.0000       0.00000       A     3.20718e-01     8.52017e-01
 c2bf                                   6      0.0000       0.00000       A     3.31541e-01     4.12675e-01
 c3bf                                   6      0.0000       0.00000       A     3.31403e-01     4.13151e-01
 c4bf                                   6      0.0000       0.00000       A     3.31446e-01     4.12044e-01
 c5bf                                   6      0.0000       0.00000       A     3.39816e-01     4.51116e-01
 c6bf                                   6      0.0000       0.00000       A     3.31670e-01     4.09377e-01
 c7bf                                   6      0.0000       0.00000       A     3.31433e-01     4.13971e-01
 c8bf                                   6      0.0000       0.00000       A     3.31712e-01     4.14364e-01
 c9bf                                   6      0.0000       0.00000       A     3.31528e-01     4.12206e-01
 c10bf                                  6      0.0000       0.00000       A     3.31391e-01     4.13545e-01
 c11bf                                  6      0.0000       0.00000       A     3.31503e-01     4.12081e-01
 c12bf                                  6      0.0000       0.00000       A     3.31706e-01     4.11575e-01
 c13bf                                  6      0.0000       0.00000       A     3.31686e-01     4.11772e-01
 c14bf                                  6      0.0000       0.00000       A     3.31489e-01     4.11120e-01
 c15bf                                  6      0.0000       0.00000       A     3.39751e-01     4.50009e-01
 n16bf                                  7      0.0000       0.00000       A     3.38324e-01     3.93605e-01
 o17bf                                  8      0.0000       0.00000       A     3.15742e-01     3.03491e-01
 cl18bf                                17      0.0000       0.00000       A     3.46633e-01     1.10664e+00
 cl19bf                                17      0.0000       0.00000       A     3.46637e-01     1.10463e+00
 c20bf                                  6      0.0000       0.00000       A     3.39775e-01     4.50700e-01
 cl21bf                                17      0.0000       0.00000       A     3.47402e-01     1.10335e+00
 h22bf                                  1      0.0000       0.00000       A     1.10799e-01     4.05290e-02
 h23bf                                  1      0.0000       0.00000       A     2.59926e-01     8.74742e-02
 h24bf                                  1      0.0000       0.00000       A     2.59926e-01     8.74742e-02
 h25bf                                  1      0.0000       0.00000       A     2.59926e-01     8.74742e-02
 h26bf                                  1      0.0000       0.00000       A     2.62578e-01     6.76574e-02
 h27bf                                  1      0.0000       0.00000       A     2.62483e-01     6.78888e-02
 h28bf                                  1      0.0000       0.00000       A     2.42080e-01     8.75859e-02
 h29bf                                  1      0.0000       0.00000       A     2.42080e-01     8.75859e-02
 h30bf                                  1      0.0000       0.00000       A     2.42080e-01     8.75859e-02
 h31bf                                  1      0.0000       0.00000       A     2.60011e-01     8.71326e-02
 h32bf                                  1      0.0000       0.00000       A     2.60011e-01     8.71326e-02
 h33bf                                  1      0.0000       0.00000       A     2.60011e-01     8.71326e-02

[ moleculetype ]
;name             nrexcl
 cmpd_15               3

[ atoms ]
;       nr            type      resi   res      atom      cgnr      charge          mass ; qtot
         1            n0bf         1   UNL        n0         1    -0.18897       14.0070 ; qtot   -0.189
         2            n1bf         1   UNL        n1         2    -0.32801       14.0070 ; qtot   -0.517
         3            c2bf         1   UNL        c2         3    -0.16367       12.0110 ; qtot   -0.681
         4            c3bf         1   UNL        c3         4     0.08042       12.0110 ; qtot   -0.600
         5            c4bf         1   UNL        c4         5    -0.03867       12.0110 ; qtot   -0.639
         6            c5bf         1   UNL        c5         6    -0.13074       12.0110 ; qtot   -0.770
         7            c6bf         1   UNL        c6         7    -0.10505       12.0110 ; qtot   -0.875
         8            c7bf         1   UNL        c7         8    -0.07181       12.0110 ; qtot   -0.946
         9            c8bf         1   UNL        c8         9    -0.13118       12.0110 ; qtot   -1.078
        10            c9bf         1   UNL        c9        10     0.13792       12.0110 ; qtot   -0.940
        11           c10bf         1   UNL       c10        11     0.14202       12.0110 ; qtot   -0.798
        12           c11bf         1   UNL       c11        12     0.09426       12.0110 ; qtot   -0.703
        13           c12bf         1   UNL       c12        13     0.22330       12.0110 ; qtot   -0.480
        14           c13bf         1   UNL       c13        14     0.13184       12.0110 ; qtot   -0.348
        15           c14bf         1   UNL       c14        15     0.15680       12.0110 ; qtot   -0.192
        16           c15bf         1   UNL       c15        16     0.14319       12.0110 ; qtot   -0.048
        17           n16bf         1   UNL       n16        17    -0.19562       14.0070 ; qtot   -0.244
        18           o17bf         1   UNL       o17        18    -0.33499       15.9990 ; qtot   -0.579
        19          cl18bf         1   UNL      cl18        19    -0.18967       35.4530 ; qtot   -0.769
        20          cl19bf         1   UNL      cl19        20    -0.17905       35.4530 ; qtot   -0.948
        21           c20bf         1   UNL       c20        21    -0.03824       12.0110 ; qtot   -0.986
        22          cl21bf         1   UNL      cl21        22    -0.16572       35.4530 ; qtot   -1.152
        23           h22bf         1   UNL       h22        23     0.36723        1.0080 ; qtot   -0.784
        24           h23bf         1   UNL       h23        24     0.06224        1.0080 ; qtot   -0.722
        25           h24bf         1   UNL       h24        25     0.06224        1.0080 ; qtot   -0.660
        26           h25bf         1   UNL       h25        26     0.06224        1.0080 ; qtot   -0.598
        27           h26bf         1   UNL       h26        27     0.14803        1.0080 ; qtot   -0.450
        28           h27bf         1   UNL       h27        28     0.14174        1.0080 ; qtot   -0.308
        29           h28bf         1   UNL       h28        29     0.04594        1.0080 ; qtot   -0.262
        30           h29bf         1   UNL       h29        30     0.04594        1.0080 ; qtot   -0.216
        31           h30bf         1   UNL       h30        31     0.04594        1.0080 ; qtot   -0.170
        32           h31bf         1   UNL       h31        32     0.05671        1.0080 ; qtot   -0.113
        33           h32bf         1   UNL       h32        33     0.05671        1.0080 ; qtot   -0.057
        34           h33bf         1   UNL       h33        34     0.05668        1.0080 ; qtot   -0.000

[ bonds ]
;       ai        aj funct               r               k
         1        14     1        0.133391   327603.114063
         1        15     1        0.134042   299174.156885
         2         5     1        0.139335   261011.781543
         2        14     1        0.137048   285821.670654
         2        23     1        0.101099   428382.558203
         3         4     1        0.143937   233502.058154
         3        13     1        0.140776   276028.929785
         3        14     1        0.142451   227680.261182
         4         5     1        0.137929   353656.124121
         4        22     1        0.174251   175419.205273
         5        21     1        0.149228   227848.576270
         6        15     1        0.150625   207364.162744
         6        24     1        0.109288   308620.257031
         6        25     1        0.109288   308620.257031
         6        26     1        0.109288   308620.257031
         7         9     1        0.140442   285494.029541
         7        11     1        0.140022   275812.196338
         7        13     1        0.149014   209662.604736
         8        11     1        0.139646   304043.700586
         8        12     1        0.139329   312695.213574
         8        27     1        0.108352   327775.412939
         9        10     1        0.139804   291626.383301
         9        28     1        0.108308   326151.329395
        10        12     1        0.140817   261167.762207
        10        18     1        0.136021   283997.657080
        11        19     1        0.175568   148953.502759
        12        20     1        0.174803   157838.412158
        13        17     1        0.133685   311868.960400
        15        17     1        0.134929   265616.633105
        16        18     1        0.142958   203003.394873
        16        29     1        0.109350   300422.436328
        16        30     1        0.109350   300422.436328
        16        31     1        0.109350   300422.436328
        21        32     1        0.109393   303008.987988
        21        33     1        0.109393   303008.987988
        21        34     1        0.109393   303008.987988

[ angles ]
;       ai        aj        ak funct           theta             cth
         1        14         2     1      125.665550      551.095417
         1        14         3     1      126.232765      698.545665
         1        15         6     1      117.570702      410.390126
         1        15        17     1      125.653488      648.604464
         2         5         4     1      107.595924      257.010321
         2         5        21     1      121.471046      609.802039
         2        14         3     1      107.745895      167.360000
         3         4         5     1      108.322777      348.141347
         3         4        22     1      127.513611      360.462268
         3        13         7     1      122.373917      392.376664
         3        13        17     1      119.976830      802.310729
         4         3        13     1      139.428162      372.493662
         4         3        14     1      105.659889      388.545044
         4         5        21     1      130.651703      363.091792
         5         2        14     1      109.846779      434.638888
         5         2        23     1      125.787766      397.538288
         5         4        22     1      123.026024      368.808817
         5        21        32     1      110.835403      494.762852
         5        21        33     1      110.835403      494.762852
         5        21        34     1      110.835403      494.762852
         6        15        17     1      116.632767      476.230412
         7         9        10     1      121.931992      721.137452
         7         9        28     1      118.268448      388.652939
         7        11         8     1      121.127014      628.119297
         7        11        19     1      120.954430      343.227656
         7        13        17     1      116.611000      545.188045
         8        11        19     1      117.640564      384.755816
         8        12        10     1      120.656090      653.339363
         8        12        20     1      119.281372      385.784419
         9         7        11     1      118.198997      594.861234
         9         7        13     1      118.401367      487.932952
         9        10        12     1      118.294655      564.207063
         9        10        18     1      123.748703      430.877336
        10         9        28     1      119.738876      419.326422
        10        12        20     1      119.904556      326.307150
        10        18        16     1      117.902969      538.599918
        11         7        13     1      122.843468      498.659113
        11         8        12     1      119.878151      648.483418
        11         8        27     1      120.210045      392.979787
        12         8        27     1      119.825150      404.303548
        12        10        18     1      117.576111      412.751447
        13         3        14     1      114.864891      843.273785
        13        17        15     1      119.591171      734.762840
        14         1        15     1      113.692642      756.369980
        14         2        23     1      123.988243      426.522620
        15         6        24     1      110.264771      499.738917
        15         6        25     1      110.264771      499.738917
        15         6        26     1      110.264771      499.738917
        18        16        29     1      109.314163      446.706034
        18        16        30     1      109.314163      446.706034
        18        16        31     1      109.314163      446.706034
        24         6        25     1      108.747475      354.430307
        24         6        26     1      108.747475      354.430307
        25         6        26     1      108.747475      354.430307
        29        16        30     1      109.703636      343.615405
        29        16        31     1      109.703636      343.615405
        30        16        31     1      109.703636      343.615405
        32        21        33     1      107.983864      357.229398
        32        21        34     1      107.983864      357.229398
        33        21        34     1      107.983864      357.229398

[ dihedrals ] ; propers for gromacs 4.5 or higher, use funct 9
;       ai        aj        ak        al funct           phase               k        pn
         1        14         2         5     9        0.000000        1.091196         1
         1        14         2         5     9      180.000000        6.487100         2
         1        14         2         5     9        0.000000        0.445694         3
         1        14         2         5     9      180.000000       -0.064270         4
         1        14         2        23     9        0.000000       -1.482133         1
         1        14         2        23     9      180.000000        2.601080         2
         1        14         2        23     9        0.000000        0.166492         3
         1        14         2        23     9      180.000000       -0.168245         4
         1        14         3         4     9        0.000000        0.060408         1
         1        14         3         4     9      180.000000       11.933948         2
         1        14         3         4     9        0.000000       -1.076048         3
         1        14         3         4     9      180.000000       -0.080552         4
         1        14         3        13     9        0.000000       -0.072709         1
         1        14         3        13     9      180.000000       10.216245         2
         1        14         3        13     9        0.000000       -0.889462         3
         1        14         3        13     9      180.000000       -0.038058         4
         1        15         6        24     9        0.000000       -0.065767         1
         1        15         6        24     9      180.000000        0.030405         2
         1        15         6        24     9        0.000000       -0.019156         3
         1        15         6        24     9      180.000000       -0.016134         4
         1        15         6        25     9        0.000000       -0.065767         1
         1        15         6        25     9      180.000000        0.030405         2
         1        15         6        25     9        0.000000       -0.019156         3
         1        15         6        25     9      180.000000       -0.016134         4
         1        15         6        26     9        0.000000       -0.065767         1
         1        15         6        26     9      180.000000        0.030405         2
         1        15         6        26     9        0.000000       -0.019156         3
         1        15         6        26     9      180.000000       -0.016134         4
         1        15        17        13     9        0.000000        0.138264         1
         1        15        17        13     9      180.000000       15.065128         2
         1        15        17        13     9        0.000000        0.513218         3
         1        15        17        13     9      180.000000       -0.527257         4
         2         5         4         3     9        0.000000       -0.234717         1
         2         5         4         3     9      180.000000       31.342425         2
         2         5         4         3     9        0.000000       -5.596560         3
         2         5         4         3     9      180.000000       -0.796130         4
         2         5         4        22     9        0.000000        1.250628         1
         2         5         4        22     9      180.000000       21.505572         2
         2         5         4        22     9        0.000000        0.888342         3
         2         5         4        22     9      180.000000       -1.554148         4
         2         5        21        32     9        0.000000       -0.005212         1
         2         5        21        32     9      180.000000        0.028880         2
         2         5        21        32     9        0.000000        0.358175         3
         2         5        21        32     9      180.000000        0.019763         4
         2         5        21        33     9        0.000000       -0.005212         1
         2         5        21        33     9      180.000000        0.028880         2
         2         5        21        33     9        0.000000        0.358175         3
         2         5        21        33     9      180.000000        0.019763         4
         2         5        21        34     9        0.000000       -0.005212         1
         2         5        21        34     9      180.000000        0.028880         2
         2         5        21        34     9        0.000000        0.358175         3
         2         5        21        34     9      180.000000        0.019763         4
         2        14         1        15     9        0.000000        0.002340         1
         2        14         1        15     9      180.000000       21.414536         2
         2        14         1        15     9        0.000000        0.219677         3
         2        14         1        15     9      180.000000       -0.893848         4
         2        14         3         4     9        0.000000        0.049857         1
         2        14         3         4     9      180.000000       18.149240         2
         2        14         3         4     9        0.000000       -5.921487         3
         2        14         3         4     9      180.000000       -0.246112         4
         2        14         3        13     9        0.000000        0.175011         1
         2        14         3        13     9      180.000000       11.359600         2
         2        14         3        13     9        0.000000       -3.061241         3
         2        14         3        13     9      180.000000       -0.030619         4
         3         4         5        21     9        0.000000        1.268169         1
         3         4         5        21     9      180.000000       17.334733         2
         3         4         5        21     9        0.000000        0.842894         3
         3         4         5        21     9      180.000000       -1.202745         4
         3        13         7         9     9        0.000000        1.890460         1
         3        13         7         9     9      180.000000        3.045020         2
         3        13         7         9     9        0.000000        0.051978         3
         3        13         7         9     9      180.000000        0.114059         4
         3        13         7        11     9        0.000000       -1.022269         1
         3        13         7        11     9      180.000000        1.728653         2
         3        13         7        11     9        0.000000        0.247176         3
         3        13         7        11     9      180.000000        0.071938         4
         3        13        17        15     9        0.000000       -0.393821         1
         3        13        17        15     9      180.000000       21.568447         2
         3        13        17        15     9        0.000000       -1.102940         3
         3        13        17        15     9      180.000000       -0.357117         4
         3        14         1        15     9        0.000000       -0.414262         1
         3        14         1        15     9      180.000000       17.749785         2
         3        14         1        15     9        0.000000       -1.012048         3
         3        14         1        15     9      180.000000       -0.350991         4
         3        14         2         5     9        0.000000       -0.048642         1
         3        14         2         5     9      180.000000       21.297347         2
         3        14         2         5     9        0.000000       -5.501913         3
         3        14         2         5     9      180.000000       -1.061912         4
         3        14         2        23     9        0.000000        0.764161         1
         3        14         2        23     9      180.000000        3.124981         2
         3        14         2        23     9        0.000000        0.452621         3
         3        14         2        23     9      180.000000        0.133721         4
         4         3        13         7     9        0.000000       -0.074324         1
         4         3        13         7     9      180.000000       11.001017         2
         4         3        13         7     9        0.000000        0.458080         3
         4         3        13         7     9      180.000000       -0.608394         4
         4         3        13        17     9        0.000000        0.153582         1
         4         3        13        17     9      180.000000        7.751025         2
         4         3        13        17     9        0.000000        0.435446         3
         4         3        13        17     9      180.000000       -0.426553         4
         4         5         2        14     9        0.000000        0.568503         1
         4         5         2        14     9      180.000000       22.335971         2
         4         5         2        14     9        0.000000       -4.515798         3
         4         5         2        14     9      180.000000       -0.939976         4
         4         5         2        23     9        0.000000        0.219596         1
         4         5         2        23     9      180.000000        2.831674         2
         4         5         2        23     9        0.000000        0.331342         3
         4         5         2        23     9      180.000000        0.037965         4
         4         5        21        32     9        0.000000       -0.001538         1
         4         5        21        32     9      180.000000        0.020923         2
         4         5        21        32     9        0.000000        0.006275         3
         4         5        21        32     9      180.000000        0.018945         4
         4         5        21        33     9        0.000000       -0.001538         1
         4         5        21        33     9      180.000000        0.020923         2
         4         5        21        33     9        0.000000        0.006275         3
         4         5        21        33     9      180.000000        0.018945         4
         4         5        21        34     9        0.000000       -0.001538         1
         4         5        21        34     9      180.000000        0.020923         2
         4         5        21        34     9        0.000000        0.006275         3
         4         5        21        34     9      180.000000        0.018945         4
         5         4         3        13     9        0.000000       -0.525358         1
         5         4         3        13     9      180.000000        4.002494         2
         5         4         3        13     9        0.000000       -1.183980         3
         5         4         3        13     9      180.000000        0.169262         4
         5         4         3        14     9        0.000000        0.459845         1
         5         4         3        14     9      180.000000       24.443588         2
         5         4         3        14     9        0.000000       -9.206999         3
         5         4         3        14     9      180.000000        0.145863         4
         6        15         1        14     9        0.000000        0.239286         1
         6        15         1        14     9      180.000000       22.523960         2
         6        15         1        14     9        0.000000        0.769557         3
         6        15         1        14     9      180.000000       -0.931374         4
         6        15        17        13     9        0.000000        0.361503         1
         6        15        17        13     9      180.000000       16.315800         2
         6        15        17        13     9        0.000000        0.302493         3
         6        15        17        13     9      180.000000       -0.732432         4
         7         9        10        12     9        0.000000       -0.063303         1
         7         9        10        12     9      180.000000       15.319475         2
         7         9        10        12     9        0.000000       -0.968170         3
         7         9        10        12     9      180.000000       -0.279285         4
         7         9        10        18     9        0.000000        0.297206         1
         7         9        10        18     9      180.000000       17.543220         2
         7         9        10        18     9        0.000000        0.069986         3
         7         9        10        18     9      180.000000       -0.247837         4
         7        11         8        12     9        0.000000       -0.144876         1
         7        11         8        12     9      180.000000       17.373839         2
         7        11         8        12     9        0.000000       -1.583879         3
         7        11         8        12     9      180.000000       -0.409080         4
         7        11         8        27     9        0.000000        0.187453         1
         7        11         8        27     9      180.000000       13.711158         2
         7        11         8        27     9        0.000000       -0.635968         3
         7        11         8        27     9      180.000000        0.108687         4
         7        13         3        14     9        0.000000        0.268331         1
         7        13         3        14     9      180.000000       14.394050         2
         7        13         3        14     9        0.000000        0.085436         3
         7        13         3        14     9      180.000000       -0.752849         4
         7        13        17        15     9        0.000000       -0.057891         1
         7        13        17        15     9      180.000000       22.026559         2
         7        13        17        15     9        0.000000        0.714217         3
         7        13        17        15     9      180.000000       -0.840246         4
         8        11         7         9     9        0.000000       -0.086116         1
         8        11         7         9     9      180.000000       17.599214         2
         8        11         7         9     9        0.000000       -1.525790         3
         8        11         7         9     9      180.000000       -0.396108         4
         8        11         7        13     9        0.000000       -0.007914         1
         8        11         7        13     9      180.000000       13.771347         2
         8        11         7        13     9        0.000000       -0.194258         3
         8        11         7        13     9      180.000000       -0.306481         4
         8        12        10         9     9        0.000000       -0.091986         1
         8        12        10         9     9      180.000000       13.997009         2
         8        12        10         9     9        0.000000       -0.877784         3
         8        12        10         9     9      180.000000       -0.090945         4
         8        12        10        18     9        0.000000        0.333678         1
         8        12        10        18     9      180.000000       15.415492         2
         8        12        10        18     9        0.000000        0.052206         3
         8        12        10        18     9      180.000000       -0.072282         4
         9         7        11        19     9        0.000000        0.263315         1
         9         7        11        19     9      180.000000       19.122539         2
         9         7        11        19     9        0.000000        0.269127         3
         9         7        11        19     9      180.000000       -0.820907         4
         9         7        13        17     9        0.000000       -2.050482         1
         9         7        13        17     9      180.000000        4.865273         2
         9         7        13        17     9        0.000000       -0.354075         3
         9         7        13        17     9      180.000000        0.429840         4
         9        10        12        20     9        0.000000        0.094534         1
         9        10        12        20     9      180.000000       14.818397         2
         9        10        12        20     9        0.000000       -0.065468         3
         9        10        12        20     9      180.000000       -0.263053         4
         9        10        18        16     9        0.000000       -1.393500         1
         9        10        18        16     9      180.000000        4.709947         2
         9        10        18        16     9        0.000000       -1.151886         3
         9        10        18        16     9      180.000000        0.548802         4
        10         9         7        11     9        0.000000       -0.244836         1
        10         9         7        11     9      180.000000       17.787862         2
        10         9         7        11     9        0.000000       -1.676901         3
        10         9         7        11     9      180.000000       -0.363217         4
        10         9         7        13     9        0.000000        0.016706         1
        10         9         7        13     9      180.000000       15.867916         2
        10         9         7        13     9        0.000000       -0.103482         3
        10         9         7        13     9      180.000000       -0.434024         4
        10        12         8        11     9        0.000000       -0.278984         1
        10        12         8        11     9      180.000000       17.716254         2
        10        12         8        11     9        0.000000       -1.461383         3
        10        12         8        11     9      180.000000       -0.415959         4
        10        12         8        27     9        0.000000        0.160086         1
        10        12         8        27     9      180.000000       13.524140         2
        10        12         8        27     9        0.000000       -0.492360         3
        10        12         8        27     9      180.000000        0.121120         4
        10        18        16        29     9        0.000000       -0.035373         1
        10        18        16        29     9      180.000000        0.005512         2
        10        18        16        29     9        0.000000        0.522930         3
        10        18        16        29     9      180.000000       -0.026902         4
        10        18        16        30     9        0.000000       -0.035373         1
        10        18        16        30     9      180.000000        0.005512         2
        10        18        16        30     9        0.000000        0.522930         3
        10        18        16        30     9      180.000000       -0.026902         4
        10        18        16        31     9        0.000000       -0.035373         1
        10        18        16        31     9      180.000000        0.005512         2
        10        18        16        31     9        0.000000        0.522930         3
        10        18        16        31     9      180.000000       -0.026902         4
        11         7         9        28     9        0.000000       -0.010042         1
        11         7         9        28     9      180.000000       13.464784         2
        11         7         9        28     9        0.000000       -0.750737         3
        11         7         9        28     9      180.000000        0.218241         4
        11         7        13        17     9        0.000000        1.300895         1
        11         7        13        17     9      180.000000        2.771866         2
        11         7        13        17     9        0.000000        0.405273         3
        11         7        13        17     9      180.000000        0.051304         4
        11         8        12        20     9        0.000000        0.271047         1
        11         8        12        20     9      180.000000       18.760299         2
        11         8        12        20     9        0.000000        0.275045         3
        11         8        12        20     9      180.000000       -0.665679         4
        12         8        11        19     9        0.000000        0.344077         1
        12         8        11        19     9      180.000000       19.457400         2
        12         8        11        19     9        0.000000        0.328713         3
        12         8        11        19     9      180.000000       -0.753218         4
        12        10         9        28     9        0.000000        0.192952         1
        12        10         9        28     9      180.000000       12.549842         2
        12        10         9        28     9        0.000000       -0.427659         3
        12        10         9        28     9      180.000000        0.163219         4
        12        10        18        16     9        0.000000        3.202600         1
        12        10        18        16     9      180.000000        2.617256         2
        12        10        18        16     9        0.000000        0.770248         3
        12        10        18        16     9      180.000000        0.230798         4
        13         3         4        22     9        0.000000        0.526118         1
        13         3         4        22     9      180.000000        5.212273         2
        13         3         4        22     9        0.000000        0.518294         3
        13         3         4        22     9      180.000000       -0.125956         4
        13         7         9        28     9        0.000000       -0.113094         1
        13         7         9        28     9      180.000000       12.973325         2
        13         7         9        28     9        0.000000       -0.349294         3
        13         7         9        28     9      180.000000        0.203795         4
        13         7        11        19     9        0.000000        0.080114         1
        13         7        11        19     9      180.000000       16.378935         2
        13         7        11        19     9        0.000000        0.296271         3
        13         7        11        19     9      180.000000       -0.863779         4
        14         1        15        17     9        0.000000       -0.067933         1
        14         1        15        17     9      180.000000       20.525855         2
        14         1        15        17     9        0.000000        0.660589         3
        14         1        15        17     9      180.000000       -0.551667         4
        14         2         5        21     9        0.000000        1.171402         1
        14         2         5        21     9      180.000000       11.165121         2
        14         2         5        21     9        0.000000        0.729085         3
        14         2         5        21     9      180.000000       -0.609067         4
        14         3         4        22     9        0.000000        1.929756         1
        14         3         4        22     9      180.000000       14.239737         2
        14         3         4        22     9        0.000000        0.870419         3
        14         3         4        22     9      180.000000       -0.715293         4
        14         3        13        17     9        0.000000       -0.220396         1
        14         3        13        17     9      180.000000       14.178477         2
        14         3        13        17     9        0.000000       -0.580798         3
        14         3        13        17     9      180.000000       -0.369323         4
        17        15         6        24     9        0.000000       -0.017723         1
        17        15         6        24     9      180.000000        0.014621         2
        17        15         6        24     9        0.000000        0.043232         3
        17        15         6        24     9      180.000000       -0.010089         4
        17        15         6        25     9        0.000000       -0.017723         1
        17        15         6        25     9      180.000000        0.014621         2
        17        15         6        25     9        0.000000        0.043232         3
        17        15         6        25     9      180.000000       -0.010089         4
        17        15         6        26     9        0.000000       -0.017723         1
        17        15         6        26     9      180.000000        0.014621         2
        17        15         6        26     9        0.000000        0.043232         3
        17        15         6        26     9      180.000000       -0.010089         4
        18        10         9        28     9        0.000000        0.094766         1
        18        10         9        28     9      180.000000       13.325385         2
        18        10         9        28     9        0.000000       -0.103308         3
        18        10         9        28     9      180.000000        0.289726         4
        18        10        12        20     9        0.000000       -0.195079         1
        18        10        12        20     9      180.000000       17.539455         2
        18        10        12        20     9        0.000000       -0.084371         3
        18        10        12        20     9      180.000000       -0.427696         4
        19        11         8        27     9        0.000000        0.121926         1
        19        11         8        27     9      180.000000       14.246097         2
        19        11         8        27     9        0.000000       -0.128840         3
        19        11         8        27     9      180.000000        0.173256         4
        20        12         8        27     9        0.000000        0.140764         1
        20        12         8        27     9      180.000000       13.892992         2
        20        12         8        27     9        0.000000       -0.188330         3
        20        12         8        27     9      180.000000        0.163077         4
        21         5         2        23     9        0.000000       -0.944770         1
        21         5         2        23     9      180.000000        1.934677         2
        21         5         2        23     9        0.000000        0.062032         3
        21         5         2        23     9      180.000000       -0.025971         4
        21         5         4        22     9        0.000000       -0.174907         1
        21         5         4        22     9      180.000000       13.197475         2
        21         5         4        22     9        0.000000        0.572848         3
        21         5         4        22     9      180.000000       -0.277352         4

[ dihedrals ] ; impropers
;       ai        aj        ak        al funct           phase               k        pn
        13         3         7        17     4      180.000000        8.755556         2
        13         7        17         3     4      180.000000        8.755556         2
        13        17         3         7     4      180.000000        8.755556         2
        15         1         6        17     4      180.000000       27.893333         2
        15         6        17         1     4      180.000000       27.893333         2
        15        17         1         6     4      180.000000       27.893333         2

[ pairs ]
;       ai        aj funct
         1         4     1
         1         5     1
         1        13     1
         1        23     1
         1        24     1
         1        25     1
         1        26     1
         2        13     1
         2        15     1
         2        22     1
         2        32     1
         2        33     1
         2        34     1
         3         9     1
         3        11     1
         3        15     1
         3        21     1
         3        23     1
         4         7     1
         4        17     1
         4        23     1
         4        32     1
         4        33     1
         4        34     1
         5        13     1
         6        13     1
         6        14     1
         7        12     1
         7        14     1
         7        15     1
         7        18     1
         7        27     1
         8         9     1
         8        13     1
         8        18     1
         9        16     1
         9        17     1
         9        19     1
         9        20     1
        10        11     1
        10        13     1
        10        27     1
        10        29     1
        10        30     1
        10        31     1
        11        17     1
        11        20     1
        11        28     1
        12        16     1
        12        19     1
        12        28     1
        13        19     1
        13        22     1
        13        28     1
        14        17     1
        14        21     1
        14        22     1
        17        24     1
        17        25     1
        17        26     1
        18        20     1
        18        28     1
        19        27     1
        20        27     1
        21        22     1
        21        23     1
