; ITP file created by ByteFF-ML, 2025-12-06 08:15:56.744028

[ atomtypes ]
;name           bonded.type        at.num        mass        charge   ptype           sigma         epsilon
 n0bf                                   7      0.0000       0.00000       A     3.38434e-01     3.92971e-01
 n1bf                                   7      0.0000       0.00000       A     3.20753e-01     8.50499e-01
 c2bf                                   6      0.0000       0.00000       A     3.31532e-01     4.12914e-01
 c3bf                                   6      0.0000       0.00000       A     3.31503e-01     4.12774e-01
 c4bf                                   6      0.0000       0.00000       A     3.31517e-01     4.13985e-01
 c5bf                                   6      0.0000       0.00000       A     3.39816e-01     4.51116e-01
 c6bf                                   6      0.0000       0.00000       A     3.31649e-01     4.09757e-01
 c7bf                                   6      0.0000       0.00000       A     3.31433e-01     4.13971e-01
 c8bf                                   6      0.0000       0.00000       A     3.31712e-01     4.14364e-01
 c9bf                                   6      0.0000       0.00000       A     3.31528e-01     4.12206e-01
 c10bf                                  6      0.0000       0.00000       A     3.31391e-01     4.13545e-01
 c11bf                                  6      0.0000       0.00000       A     3.31503e-01     4.12081e-01
 c12bf                                  6      0.0000       0.00000       A     3.31200e-01     4.13725e-01
 c13bf                                  6      0.0000       0.00000       A     3.31592e-01     4.11689e-01
 c14bf                                  6      0.0000       0.00000       A     3.31489e-01     4.11120e-01
 c15bf                                  6      0.0000       0.00000       A     3.39751e-01     4.50009e-01
 n16bf                                  7      0.0000       0.00000       A     3.38473e-01     3.93232e-01
 o17bf                                  8      0.0000       0.00000       A     3.15742e-01     3.03491e-01
 cl18bf                                17      0.0000       0.00000       A     3.46633e-01     1.10664e+00
 cl19bf                                17      0.0000       0.00000       A     3.46637e-01     1.10463e+00
 c20bf                                  6      0.0000       0.00000       A     3.39751e-01     4.50894e-01
 h21bf                                  1      0.0000       0.00000       A     1.10809e-01     4.08562e-02
 h22bf                                  1      0.0000       0.00000       A     2.62719e-01     6.67125e-02
 h23bf                                  1      0.0000       0.00000       A     2.59926e-01     8.74742e-02
 h24bf                                  1      0.0000       0.00000       A     2.59926e-01     8.74742e-02
 h25bf                                  1      0.0000       0.00000       A     2.59926e-01     8.74742e-02
 h26bf                                  1      0.0000       0.00000       A     2.62578e-01     6.76574e-02
 h27bf                                  1      0.0000       0.00000       A     2.62483e-01     6.78888e-02
 h28bf                                  1      0.0000       0.00000       A     2.42080e-01     8.75859e-02
 h29bf                                  1      0.0000       0.00000       A     2.42080e-01     8.75859e-02
 h30bf                                  1      0.0000       0.00000       A     2.42080e-01     8.75859e-02
 h31bf                                  1      0.0000       0.00000       A     2.59997e-01     8.70576e-02
 h32bf                                  1      0.0000       0.00000       A     2.59997e-01     8.70576e-02
 h33bf                                  1      0.0000       0.00000       A     2.59997e-01     8.70576e-02

[ moleculetype ]
;name             nrexcl
 cmpd_14               3

[ atoms ]
;       nr            type      resi   res      atom      cgnr      charge          mass ; qtot
         1            n0bf         1   UNL        n0         1    -0.19501       14.0070 ; qtot   -0.195
         2            n1bf         1   UNL        n1         2    -0.34028       14.0070 ; qtot   -0.535
         3            c2bf         1   UNL        c2         3    -0.16775       12.0110 ; qtot   -0.703
         4            c3bf         1   UNL        c3         4    -0.21194       12.0110 ; qtot   -0.915
         5            c4bf         1   UNL        c4         5    -0.04963       12.0110 ; qtot   -0.965
         6            c5bf         1   UNL        c5         6    -0.13074       12.0110 ; qtot   -1.095
         7            c6bf         1   UNL        c6         7    -0.10476       12.0110 ; qtot   -1.200
         8            c7bf         1   UNL        c7         8    -0.07181       12.0110 ; qtot   -1.272
         9            c8bf         1   UNL        c8         9    -0.13626       12.0110 ; qtot   -1.408
        10            c9bf         1   UNL        c9        10     0.13792       12.0110 ; qtot   -1.270
        11           c10bf         1   UNL       c10        11     0.13773       12.0110 ; qtot   -1.133
        12           c11bf         1   UNL       c11        12     0.09426       12.0110 ; qtot   -1.038
        13           c12bf         1   UNL       c12        13     0.21199       12.0110 ; qtot   -0.826
        14           c13bf         1   UNL       c13        14     0.13734       12.0110 ; qtot   -0.689
        15           c14bf         1   UNL       c14        15     0.14682       12.0110 ; qtot   -0.542
        16           c15bf         1   UNL       c15        16     0.14319       12.0110 ; qtot   -0.399
        17           n16bf         1   UNL       n16        17    -0.19379       14.0070 ; qtot   -0.593
        18           o17bf         1   UNL       o17        18    -0.33499       15.9990 ; qtot   -0.928
        19          cl18bf         1   UNL      cl18        19    -0.18967       35.4530 ; qtot   -1.117
        20          cl19bf         1   UNL      cl19        20    -0.17905       35.4530 ; qtot   -1.296
        21           c20bf         1   UNL       c20        21    -0.04279       12.0110 ; qtot   -1.339
        22           h21bf         1   UNL       h21        22     0.36120        1.0080 ; qtot   -0.978
        23           h22bf         1   UNL       h22        23     0.20800        1.0080 ; qtot   -0.770
        24           h23bf         1   UNL       h23        24     0.06224        1.0080 ; qtot   -0.708
        25           h24bf         1   UNL       h24        25     0.06224        1.0080 ; qtot   -0.646
        26           h25bf         1   UNL       h25        26     0.06224        1.0080 ; qtot   -0.583
        27           h26bf         1   UNL       h26        27     0.14803        1.0080 ; qtot   -0.435
        28           h27bf         1   UNL       h27        28     0.14174        1.0080 ; qtot   -0.294
        29           h28bf         1   UNL       h28        29     0.04594        1.0080 ; qtot   -0.248
        30           h29bf         1   UNL       h29        30     0.04594        1.0080 ; qtot   -0.202
        31           h30bf         1   UNL       h30        31     0.04594        1.0080 ; qtot   -0.156
        32           h31bf         1   UNL       h31        32     0.05191        1.0080 ; qtot   -0.104
        33           h32bf         1   UNL       h32        33     0.05191        1.0080 ; qtot   -0.052
        34           h33bf         1   UNL       h33        34     0.05189        1.0080 ; qtot   -0.000

[ bonds ]
;       ai        aj funct               r               k
         1        14     1        0.133467   326558.365381
         1        15     1        0.134145   297047.835010
         2         5     1        0.139414   257778.298291
         2        14     1        0.137413   279361.011816
         2        22     1        0.101072   428607.795508
         3         4     1        0.143918   247439.727246
         3        13     1        0.140493   282186.029004
         3        14     1        0.142162   234437.610156
         4         5     1        0.137842   366249.009033
         4        23     1        0.108088   335971.037451
         5        21     1        0.149447   228045.697217
         6        15     1        0.150625   207364.162744
         6        24     1        0.109288   308620.257031
         6        25     1        0.109288   308620.257031
         6        26     1        0.109288   308620.257031
         7         9     1        0.140518   283830.337939
         7        11     1        0.140142   273394.240674
         7        13     1        0.148890   207747.730127
         8        11     1        0.139646   304043.700586
         8        12     1        0.139329   312695.213574
         8        27     1        0.108352   327775.412939
         9        10     1        0.139804   291626.383301
         9        28     1        0.108308   326151.329395
        10        12     1        0.140817   261167.762207
        10        18     1        0.136021   283997.657080
        11        19     1        0.175568   148953.502759
        12        20     1        0.174803   157838.412158
        13        17     1        0.133884   307803.069531
        15        17     1        0.134892   267147.736035
        16        18     1        0.142958   203003.394873
        16        29     1        0.109350   300422.436328
        16        30     1        0.109350   300422.436328
        16        31     1        0.109350   300422.436328
        21        32     1        0.109435   301216.614893
        21        33     1        0.109435   301216.614893
        21        34     1        0.109435   301216.614893

[ angles ]
;       ai        aj        ak funct           theta             cth
         1        14         2     1      126.223618      545.734859
         1        14         3     1      126.293053      694.055028
         1        15         6     1      117.488991      404.738796
         1        15        17     1      125.980881      637.863620
         2         5         4     1      108.827560      224.864974
         2         5        21     1      120.860390      629.828751
         2        14         3     1      107.523819      167.360000
         3         4         5     1      107.214798      431.936871
         3         4        23     1      127.664207      386.193172
         3        13         7     1      121.550247      413.063670
         3        13        17     1      120.259842      797.333930
         4         3        13     1      138.244507      399.296997
         4         3        14     1      106.936203      271.633412
         4         5        21     1      130.357101      413.694245
         5         2        14     1      109.657791      437.861512
         5         2        22     1      126.219505      387.751766
         5         4        23     1      125.142860      391.672670
         5        21        32     1      110.986816      500.282379
         5        21        33     1      110.986816      500.282379
         5        21        34     1      110.986816      500.282379
         6        15        17     1      116.564407      462.262028
         7         9        10     1      122.060692      722.616051
         7         9        28     1      118.156418      391.196658
         7        11         8     1      121.204628      629.890806
         7        11        19     1      120.987473      341.154394
         7        13        17     1      117.376038      535.145194
         8        11        19     1      117.640564      384.755816
         8        12        10     1      120.656090      653.339363
         8        12        20     1      119.281372      385.784419
         9         7        11     1      118.016403      590.667722
         9         7        13     1      118.201279      493.446478
         9        10        12     1      118.294655      564.207063
         9        10        18     1      123.748703      430.877336
        10         9        28     1      119.738876      419.326422
        10        12        20     1      119.904556      326.307150
        10        18        16     1      117.902969      538.599918
        11         7        13     1      123.518311      501.757786
        11         8        12     1      119.878151      648.483418
        11         8        27     1      120.210045      392.979787
        12         8        27     1      119.825150      404.303548
        12        10        18     1      117.576111      412.751447
        13         3        14     1      114.747337      844.289587
        13        17        15     1      119.119957      743.019754
        14         1        15     1      113.571022      754.668634
        14         2        22     1      124.095840      424.622883
        15         6        24     1      110.264771      499.738917
        15         6        25     1      110.264771      499.738917
        15         6        26     1      110.264771      499.738917
        18        16        29     1      109.314163      446.706034
        18        16        30     1      109.314163      446.706034
        18        16        31     1      109.314163      446.706034
        24         6        25     1      108.747475      354.430307
        24         6        26     1      108.747475      354.430307
        25         6        26     1      108.747475      354.430307
        29        16        30     1      109.703636      343.615405
        29        16        31     1      109.703636      343.615405
        30        16        31     1      109.703636      343.615405
        32        21        33     1      107.874367      357.573223
        32        21        34     1      107.874367      357.573223
        33        21        34     1      107.874367      357.573223

[ dihedrals ] ; propers for gromacs 4.5 or higher, use funct 9
;       ai        aj        ak        al funct           phase               k        pn
         1        14         2         5     9        0.000000        1.340113         1
         1        14         2         5     9      180.000000        5.703970         2
         1        14         2         5     9        0.000000        0.582702         3
         1        14         2         5     9      180.000000       -0.069832         4
         1        14         2        22     9        0.000000       -1.312940         1
         1        14         2        22     9      180.000000        2.677809         2
         1        14         2        22     9        0.000000        0.173104         3
         1        14         2        22     9      180.000000       -0.129314         4
         1        14         3         4     9        0.000000        0.141280         1
         1        14         3         4     9      180.000000       12.083849         2
         1        14         3         4     9        0.000000       -1.575184         3
         1        14         3         4     9      180.000000       -0.084356         4
         1        14         3        13     9        0.000000       -0.222887         1
         1        14         3        13     9      180.000000       11.003818         2
         1        14         3        13     9        0.000000       -1.152886         3
         1        14         3        13     9      180.000000       -0.124217         4
         1        15         6        24     9        0.000000       -0.053197         1
         1        15         6        24     9      180.000000        0.012537         2
         1        15         6        24     9        0.000000       -0.016484         3
         1        15         6        24     9      180.000000       -0.016352         4
         1        15         6        25     9        0.000000       -0.053197         1
         1        15         6        25     9      180.000000        0.012537         2
         1        15         6        25     9        0.000000       -0.016484         3
         1        15         6        25     9      180.000000       -0.016352         4
         1        15         6        26     9        0.000000       -0.053197         1
         1        15         6        26     9      180.000000        0.012537         2
         1        15         6        26     9        0.000000       -0.016484         3
         1        15         6        26     9      180.000000       -0.016352         4
         1        15        17        13     9        0.000000        0.055710         1
         1        15        17        13     9      180.000000       16.295953         2
         1        15        17        13     9        0.000000        0.488367         3
         1        15        17        13     9      180.000000       -0.679859         4
         2         5         4         3     9        0.000000       -0.216296         1
         2         5         4         3     9      180.000000       33.927454         2
         2         5         4         3     9        0.000000       -5.670904         3
         2         5         4         3     9      180.000000       -0.735058         4
         2         5         4        23     9        0.000000        0.267316         1
         2         5         4        23     9      180.000000       16.324797         2
         2         5         4        23     9        0.000000       -0.028413         3
         2         5         4        23     9      180.000000       -0.331904         4
         2         5        21        32     9        0.000000        0.011042         1
         2         5        21        32     9      180.000000       -0.000323         2
         2         5        21        32     9        0.000000        0.394542         3
         2         5        21        32     9      180.000000        0.017711         4
         2         5        21        33     9        0.000000        0.011042         1
         2         5        21        33     9      180.000000       -0.000323         2
         2         5        21        33     9        0.000000        0.394542         3
         2         5        21        33     9      180.000000        0.017711         4
         2         5        21        34     9        0.000000        0.011042         1
         2         5        21        34     9      180.000000       -0.000323         2
         2         5        21        34     9        0.000000        0.394542         3
         2         5        21        34     9      180.000000        0.017711         4
         2        14         1        15     9        0.000000        0.216699         1
         2        14         1        15     9      180.000000       20.979757         2
         2        14         1        15     9        0.000000        0.334580         3
         2        14         1        15     9      180.000000       -0.892563         4
         2        14         3         4     9        0.000000        0.092135         1
         2        14         3         4     9      180.000000       17.305541         2
         2        14         3         4     9        0.000000       -5.492437         3
         2        14         3         4     9      180.000000       -0.176269         4
         2        14         3        13     9        0.000000       -0.208830         1
         2        14         3        13     9      180.000000       11.792983         2
         2        14         3        13     9        0.000000       -2.858956         3
         2        14         3        13     9      180.000000       -0.102871         4
         3         4         5        21     9        0.000000        0.654592         1
         3         4         5        21     9      180.000000       20.011226         2
         3         4         5        21     9        0.000000        0.455353         3
         3         4         5        21     9      180.000000       -1.185743         4
         3        13         7         9     9        0.000000        0.514651         1
         3        13         7         9     9      180.000000        3.732897         2
         3        13         7         9     9        0.000000       -0.047773         3
         3        13         7         9     9      180.000000        0.320799         4
         3        13         7        11     9        0.000000       -0.246157         1
         3        13         7        11     9      180.000000        2.206782         2
         3        13         7        11     9        0.000000       -0.185414         3
         3        13         7        11     9      180.000000        0.180062         4
         3        13        17        15     9        0.000000       -0.623189         1
         3        13        17        15     9      180.000000       21.361746         2
         3        13        17        15     9        0.000000       -1.378864         3
         3        13        17        15     9      180.000000       -0.296384         4
         3        14         1        15     9        0.000000       -0.322878         1
         3        14         1        15     9      180.000000       18.259091         2
         3        14         1        15     9        0.000000       -1.087488         3
         3        14         1        15     9      180.000000       -0.381284         4
         3        14         2         5     9        0.000000        0.035888         1
         3        14         2         5     9      180.000000       20.916393         2
         3        14         2         5     9        0.000000       -5.621470         3
         3        14         2         5     9      180.000000       -0.895182         4
         3        14         2        22     9        0.000000        0.332454         1
         3        14         2        22     9      180.000000        3.517547         2
         3        14         2        22     9        0.000000        0.288505         3
         3        14         2        22     9      180.000000        0.201015         4
         4         3        13         7     9        0.000000        0.387318         1
         4         3        13         7     9      180.000000       12.640841         2
         4         3        13         7     9        0.000000        0.429163         3
         4         3        13         7     9      180.000000       -0.456412         4
         4         3        13        17     9        0.000000        0.057498         1
         4         3        13        17     9      180.000000       10.719782         2
         4         3        13        17     9        0.000000       -0.025629         3
         4         3        13        17     9      180.000000       -0.375913         4
         4         5         2        14     9        0.000000        0.499317         1
         4         5         2        14     9      180.000000       20.716505         2
         4         5         2        14     9        0.000000       -5.082087         3
         4         5         2        14     9      180.000000       -0.879717         4
         4         5         2        22     9        0.000000       -0.477968         1
         4         5         2        22     9      180.000000        3.312943         2
         4         5         2        22     9        0.000000        0.358130         3
         4         5         2        22     9      180.000000        0.078546         4
         4         5        21        32     9        0.000000       -0.027166         1
         4         5        21        32     9      180.000000       -0.007045         2
         4         5        21        32     9        0.000000       -0.163912         3
         4         5        21        32     9      180.000000        0.015701         4
         4         5        21        33     9        0.000000       -0.027166         1
         4         5        21        33     9      180.000000       -0.007045         2
         4         5        21        33     9        0.000000       -0.163912         3
         4         5        21        33     9      180.000000        0.015701         4
         4         5        21        34     9        0.000000       -0.027166         1
         4         5        21        34     9      180.000000       -0.007045         2
         4         5        21        34     9        0.000000       -0.163912         3
         4         5        21        34     9      180.000000        0.015701         4
         5         4         3        13     9        0.000000       -0.107750         1
         5         4         3        13     9      180.000000        4.066394         2
         5         4         3        13     9        0.000000       -0.770871         3
         5         4         3        13     9      180.000000       -0.006085         4
         5         4         3        14     9        0.000000        0.030228         1
         5         4         3        14     9      180.000000       25.408462         2
         5         4         3        14     9        0.000000       -9.482664         3
         5         4         3        14     9      180.000000       -0.055127         4
         6        15         1        14     9        0.000000        0.248966         1
         6        15         1        14     9      180.000000       22.663391         2
         6        15         1        14     9        0.000000        0.722904         3
         6        15         1        14     9      180.000000       -0.925220         4
         6        15        17        13     9        0.000000        0.073227         1
         6        15        17        13     9      180.000000       18.414123         2
         6        15        17        13     9        0.000000        0.327997         3
         6        15        17        13     9      180.000000       -0.962624         4
         7         9        10        12     9        0.000000       -0.105774         1
         7         9        10        12     9      180.000000       15.343568         2
         7         9        10        12     9        0.000000       -0.925362         3
         7         9        10        12     9      180.000000       -0.293544         4
         7         9        10        18     9        0.000000        0.321633         1
         7         9        10        18     9      180.000000       17.489133         2
         7         9        10        18     9        0.000000        0.094890         3
         7         9        10        18     9      180.000000       -0.257337         4
         7        11         8        12     9        0.000000       -0.127246         1
         7        11         8        12     9      180.000000       17.358649         2
         7        11         8        12     9        0.000000       -1.585492         3
         7        11         8        12     9      180.000000       -0.397783         4
         7        11         8        27     9        0.000000        0.176717         1
         7        11         8        27     9      180.000000       13.717831         2
         7        11         8        27     9        0.000000       -0.649216         3
         7        11         8        27     9      180.000000        0.105710         4
         7        13         3        14     9        0.000000        0.283135         1
         7        13         3        14     9      180.000000       15.579135         2
         7        13         3        14     9        0.000000        0.113849         3
         7        13         3        14     9      180.000000       -0.839847         4
         7        13        17        15     9        0.000000        0.208065         1
         7        13        17        15     9      180.000000       20.793795         2
         7        13        17        15     9        0.000000        0.807047         3
         7        13        17        15     9      180.000000       -0.734352         4
         8        11         7         9     9        0.000000       -0.096878         1
         8        11         7         9     9      180.000000       17.536714         2
         8        11         7         9     9        0.000000       -1.451171         3
         8        11         7         9     9      180.000000       -0.420979         4
         8        11         7        13     9        0.000000        0.070643         1
         8        11         7        13     9      180.000000       13.383046         2
         8        11         7        13     9        0.000000       -0.247522         3
         8        11         7        13     9      180.000000       -0.250802         4
         8        12        10         9     9        0.000000       -0.091986         1
         8        12        10         9     9      180.000000       13.997009         2
         8        12        10         9     9        0.000000       -0.877784         3
         8        12        10         9     9      180.000000       -0.090945         4
         8        12        10        18     9        0.000000        0.333678         1
         8        12        10        18     9      180.000000       15.415492         2
         8        12        10        18     9        0.000000        0.052206         3
         8        12        10        18     9      180.000000       -0.072282         4
         9         7        11        19     9        0.000000        0.332571         1
         9         7        11        19     9      180.000000       18.801812         2
         9         7        11        19     9        0.000000        0.297781         3
         9         7        11        19     9      180.000000       -0.805822         4
         9         7        13        17     9        0.000000       -2.412544         1
         9         7        13        17     9      180.000000        4.943789         2
         9         7        13        17     9        0.000000       -0.411885         3
         9         7        13        17     9      180.000000        0.392678         4
         9        10        12        20     9        0.000000        0.094534         1
         9        10        12        20     9      180.000000       14.818397         2
         9        10        12        20     9        0.000000       -0.065468         3
         9        10        12        20     9      180.000000       -0.263053         4
         9        10        18        16     9        0.000000       -1.393500         1
         9        10        18        16     9      180.000000        4.709947         2
         9        10        18        16     9        0.000000       -1.151886         3
         9        10        18        16     9      180.000000        0.548802         4
        10         9         7        11     9        0.000000       -0.261634         1
        10         9         7        11     9      180.000000       17.708920         2
        10         9         7        11     9        0.000000       -1.650210         3
        10         9         7        11     9      180.000000       -0.355493         4
        10         9         7        13     9        0.000000        0.016606         1
        10         9         7        13     9      180.000000       15.590623         2
        10         9         7        13     9        0.000000       -0.167587         3
        10         9         7        13     9      180.000000       -0.321376         4
        10        12         8        11     9        0.000000       -0.278984         1
        10        12         8        11     9      180.000000       17.716254         2
        10        12         8        11     9        0.000000       -1.461383         3
        10        12         8        11     9      180.000000       -0.415959         4
        10        12         8        27     9        0.000000        0.160086         1
        10        12         8        27     9      180.000000       13.524140         2
        10        12         8        27     9        0.000000       -0.492360         3
        10        12         8        27     9      180.000000        0.121120         4
        10        18        16        29     9        0.000000       -0.035373         1
        10        18        16        29     9      180.000000        0.005512         2
        10        18        16        29     9        0.000000        0.522930         3
        10        18        16        29     9      180.000000       -0.026902         4
        10        18        16        30     9        0.000000       -0.035373         1
        10        18        16        30     9      180.000000        0.005512         2
        10        18        16        30     9        0.000000        0.522930         3
        10        18        16        30     9      180.000000       -0.026902         4
        10        18        16        31     9        0.000000       -0.035373         1
        10        18        16        31     9      180.000000        0.005512         2
        10        18        16        31     9        0.000000        0.522930         3
        10        18        16        31     9      180.000000       -0.026902         4
        11         7         9        28     9        0.000000        0.005457         1
        11         7         9        28     9      180.000000       13.407179         2
        11         7         9        28     9        0.000000       -0.634784         3
        11         7         9        28     9      180.000000        0.210898         4
        11         7        13        17     9        0.000000        1.150933         1
        11         7        13        17     9      180.000000        2.899605         2
        11         7        13        17     9        0.000000        0.531865         3
        11         7        13        17     9      180.000000       -0.047711         4
        11         8        12        20     9        0.000000        0.271047         1
        11         8        12        20     9      180.000000       18.760299         2
        11         8        12        20     9        0.000000        0.275045         3
        11         8        12        20     9      180.000000       -0.665679         4
        12         8        11        19     9        0.000000        0.344077         1
        12         8        11        19     9      180.000000       19.457400         2
        12         8        11        19     9        0.000000        0.328713         3
        12         8        11        19     9      180.000000       -0.753218         4
        12        10         9        28     9        0.000000        0.192952         1
        12        10         9        28     9      180.000000       12.549842         2
        12        10         9        28     9        0.000000       -0.427659         3
        12        10         9        28     9      180.000000        0.163219         4
        12        10        18        16     9        0.000000        3.202600         1
        12        10        18        16     9      180.000000        2.617256         2
        12        10        18        16     9        0.000000        0.770248         3
        12        10        18        16     9      180.000000        0.230798         4
        13         3         4        23     9        0.000000       -0.374041         1
        13         3         4        23     9      180.000000        3.444443         2
        13         3         4        23     9        0.000000       -0.118759         3
        13         3         4        23     9      180.000000       -0.139930         4
        13         7         9        28     9        0.000000       -0.039510         1
        13         7         9        28     9      180.000000       12.795391         2
        13         7         9        28     9        0.000000       -0.270776         3
        13         7         9        28     9      180.000000        0.229563         4
        13         7        11        19     9        0.000000        0.235765         1
        13         7        11        19     9      180.000000       15.760554         2
        13         7        11        19     9        0.000000        0.356457         3
        13         7        11        19     9      180.000000       -0.703259         4
        14         1        15        17     9        0.000000       -0.036137         1
        14         1        15        17     9      180.000000       20.420139         2
        14         1        15        17     9        0.000000        0.417338         3
        14         1        15        17     9      180.000000       -0.541184         4
        14         2         5        21     9        0.000000        1.326089         1
        14         2         5        21     9      180.000000       11.652252         2
        14         2         5        21     9        0.000000        0.722875         3
        14         2         5        21     9      180.000000       -0.620496         4
        14         3         4        23     9        0.000000        0.363294         1
        14         3         4        23     9      180.000000        9.399981         2
        14         3         4        23     9        0.000000       -0.162311         3
        14         3         4        23     9      180.000000       -0.124162         4
        14         3        13        17     9        0.000000       -0.284449         1
        14         3        13        17     9      180.000000       15.667644         2
        14         3        13        17     9        0.000000       -0.924018         3
        14         3        13        17     9      180.000000       -0.337984         4
        17        15         6        24     9        0.000000       -0.027747         1
        17        15         6        24     9      180.000000        0.014178         2
        17        15         6        24     9        0.000000        0.029911         3
        17        15         6        24     9      180.000000       -0.011057         4
        17        15         6        25     9        0.000000       -0.027747         1
        17        15         6        25     9      180.000000        0.014178         2
        17        15         6        25     9        0.000000        0.029911         3
        17        15         6        25     9      180.000000       -0.011057         4
        17        15         6        26     9        0.000000       -0.027747         1
        17        15         6        26     9      180.000000        0.014178         2
        17        15         6        26     9        0.000000        0.029911         3
        17        15         6        26     9      180.000000       -0.011057         4
        18        10         9        28     9        0.000000        0.094766         1
        18        10         9        28     9      180.000000       13.325385         2
        18        10         9        28     9        0.000000       -0.103308         3
        18        10         9        28     9      180.000000        0.289726         4
        18        10        12        20     9        0.000000       -0.195079         1
        18        10        12        20     9      180.000000       17.539455         2
        18        10        12        20     9        0.000000       -0.084371         3
        18        10        12        20     9      180.000000       -0.427696         4
        19        11         8        27     9        0.000000        0.121926         1
        19        11         8        27     9      180.000000       14.246097         2
        19        11         8        27     9        0.000000       -0.128840         3
        19        11         8        27     9      180.000000        0.173256         4
        20        12         8        27     9        0.000000        0.140764         1
        20        12         8        27     9      180.000000       13.892992         2
        20        12         8        27     9        0.000000       -0.188330         3
        20        12         8        27     9      180.000000        0.163077         4
        21         5         2        22     9        0.000000       -0.765345         1
        21         5         2        22     9      180.000000        2.056235         2
        21         5         2        22     9        0.000000        0.079168         3
        21         5         2        22     9      180.000000        0.000684         4
        21         5         4        23     9        0.000000       -0.177611         1
        21         5         4        23     9      180.000000       12.516487         2
        21         5         4        23     9        0.000000       -0.222758         3
        21         5         4        23     9      180.000000        0.080561         4

[ dihedrals ] ; impropers
;       ai        aj        ak        al funct           phase               k        pn
        13         3         7        17     4      180.000000        4.440125         2
        13         7        17         3     4      180.000000        4.440125         2
        13        17         3         7     4      180.000000        4.440125         2
        14         1         2         3     4      180.000000        0.221033         2
        14         2         3         1     4      180.000000        0.221033         2
        14         3         1         2     4      180.000000        0.221033         2
        15         1         6        17     4      180.000000       27.893333         2
        15         6        17         1     4      180.000000       27.893333         2
        15        17         1         6     4      180.000000       27.893333         2

[ pairs ]
;       ai        aj funct
         1         4     1
         1         5     1
         1        13     1
         1        22     1
         1        24     1
         1        25     1
         1        26     1
         2        13     1
         2        15     1
         2        23     1
         2        32     1
         2        33     1
         2        34     1
         3         9     1
         3        11     1
         3        15     1
         3        21     1
         3        22     1
         4         7     1
         4        17     1
         4        22     1
         4        32     1
         4        33     1
         4        34     1
         5        13     1
         6        13     1
         6        14     1
         7        12     1
         7        14     1
         7        15     1
         7        18     1
         7        27     1
         8         9     1
         8        13     1
         8        18     1
         9        16     1
         9        17     1
         9        19     1
         9        20     1
        10        11     1
        10        13     1
        10        27     1
        10        29     1
        10        30     1
        10        31     1
        11        17     1
        11        20     1
        11        28     1
        12        16     1
        12        19     1
        12        28     1
        13        19     1
        13        23     1
        13        28     1
        14        17     1
        14        21     1
        14        23     1
        17        24     1
        17        25     1
        17        26     1
        18        20     1
        18        28     1
        19        27     1
        20        27     1
        21        22     1
        21        23     1
