; ITP file created by ByteFF-ML, 2025-12-06 08:16:43.439784

[ atomtypes ]
;name           bonded.type        at.num        mass        charge   ptype           sigma         epsilon
 n0bf                                   7      0.0000       0.00000       A     3.38459e-01     3.92872e-01
 n1bf                                   7      0.0000       0.00000       A     3.20530e-01     8.47398e-01
 c2bf                                   6      0.0000       0.00000       A     3.31499e-01     4.13119e-01
 c3bf                                   6      0.0000       0.00000       A     3.31495e-01     4.15891e-01
 c4bf                                   6      0.0000       0.00000       A     3.31542e-01     4.13061e-01
 c5bf                                   6      0.0000       0.00000       A     3.39816e-01     4.51116e-01
 c6bf                                   6      0.0000       0.00000       A     3.31649e-01     4.09676e-01
 c7bf                                   6      0.0000       0.00000       A     3.31433e-01     4.13971e-01
 c8bf                                   6      0.0000       0.00000       A     3.31712e-01     4.14364e-01
 c9bf                                   6      0.0000       0.00000       A     3.47986e-01     6.71940e-01
 c10bf                                  6      0.0000       0.00000       A     3.31528e-01     4.12206e-01
 c11bf                                  6      0.0000       0.00000       A     3.31391e-01     4.13545e-01
 c12bf                                  6      0.0000       0.00000       A     3.31503e-01     4.12081e-01
 c13bf                                  6      0.0000       0.00000       A     3.31426e-01     4.12590e-01
 c14bf                                  6      0.0000       0.00000       A     3.31606e-01     4.11634e-01
 c15bf                                  6      0.0000       0.00000       A     3.31489e-01     4.11120e-01
 c16bf                                  6      0.0000       0.00000       A     3.39724e-01     4.52913e-01
 c17bf                                  6      0.0000       0.00000       A     3.39751e-01     4.50009e-01
 n18bf                                  7      0.0000       0.00000       A     3.27327e-01     4.59077e-01
 n19bf                                  7      0.0000       0.00000       A     3.38397e-01     3.94068e-01
 o20bf                                  8      0.0000       0.00000       A     3.15742e-01     3.03491e-01
 cl21bf                                17      0.0000       0.00000       A     3.46633e-01     1.10664e+00
 cl22bf                                17      0.0000       0.00000       A     3.46637e-01     1.10463e+00
 c23bf                                  6      0.0000       0.00000       A     3.39777e-01     4.50329e-01
 h24bf                                  1      0.0000       0.00000       A     1.10744e-01     4.12185e-02
 h25bf                                  1      0.0000       0.00000       A     2.59926e-01     8.74742e-02
 h26bf                                  1      0.0000       0.00000       A     2.59926e-01     8.74742e-02
 h27bf                                  1      0.0000       0.00000       A     2.59926e-01     8.74742e-02
 h28bf                                  1      0.0000       0.00000       A     2.62578e-01     6.76574e-02
 h29bf                                  1      0.0000       0.00000       A     2.62483e-01     6.78888e-02
 h30bf                                  1      0.0000       0.00000       A     2.59719e-01     8.68788e-02
 h31bf                                  1      0.0000       0.00000       A     2.59719e-01     8.68788e-02
 h32bf                                  1      0.0000       0.00000       A     2.42080e-01     8.75859e-02
 h33bf                                  1      0.0000       0.00000       A     2.42080e-01     8.75859e-02
 h34bf                                  1      0.0000       0.00000       A     2.42080e-01     8.75859e-02
 h35bf                                  1      0.0000       0.00000       A     2.59969e-01     8.76418e-02
 h36bf                                  1      0.0000       0.00000       A     2.59969e-01     8.76418e-02
 h37bf                                  1      0.0000       0.00000       A     2.59969e-01     8.76418e-02

[ moleculetype ]
;name             nrexcl
 cmpd_17               3

[ atoms ]
;       nr            type      resi   res      atom      cgnr      charge          mass ; qtot
         1            n0bf         1   UNL        n0         1    -0.18686       14.0070 ; qtot   -0.187
         2            n1bf         1   UNL        n1         2    -0.32168       14.0070 ; qtot   -0.509
         3            c2bf         1   UNL        c2         3    -0.15036       12.0110 ; qtot   -0.659
         4            c3bf         1   UNL        c3         4    -0.02556       12.0110 ; qtot   -0.684
         5            c4bf         1   UNL        c4         5     0.00170       12.0110 ; qtot   -0.683
         6            c5bf         1   UNL        c5         6    -0.13074       12.0110 ; qtot   -0.814
         7            c6bf         1   UNL        c6         7    -0.11181       12.0110 ; qtot   -0.925
         8            c7bf         1   UNL        c7         8    -0.07181       12.0110 ; qtot   -0.997
         9            c8bf         1   UNL        c8         9    -0.13030       12.0110 ; qtot   -1.127
        10            c9bf         1   UNL        c9        10     0.32014       12.0110 ; qtot   -0.807
        11           c10bf         1   UNL       c10        11     0.13792       12.0110 ; qtot   -0.669
        12           c11bf         1   UNL       c11        12     0.14342       12.0110 ; qtot   -0.526
        13           c12bf         1   UNL       c12        13     0.09426       12.0110 ; qtot   -0.432
        14           c13bf         1   UNL       c13        14     0.22794       12.0110 ; qtot   -0.204
        15           c14bf         1   UNL       c14        15     0.13578       12.0110 ; qtot   -0.068
        16           c15bf         1   UNL       c15        16     0.15944       12.0110 ; qtot    0.091
        17           c16bf         1   UNL       c16        17    -0.03013       12.0110 ; qtot    0.061
        18           c17bf         1   UNL       c17        18     0.14319       12.0110 ; qtot    0.205
        19           n18bf         1   UNL       n18        19    -0.45442       14.0070 ; qtot   -0.250
        20           n19bf         1   UNL       n19        20    -0.19029       14.0070 ; qtot   -0.440
        21           o20bf         1   UNL       o20        21    -0.33499       15.9990 ; qtot   -0.775
        22          cl21bf         1   UNL      cl21        22    -0.18967       35.4530 ; qtot   -0.965
        23          cl22bf         1   UNL      cl22        23    -0.17905       35.4530 ; qtot   -1.144
        24           c23bf         1   UNL       c23        24    -0.09188       12.0110 ; qtot   -1.236
        25           h24bf         1   UNL       h24        25     0.37322        1.0080 ; qtot   -0.863
        26           h25bf         1   UNL       h25        26     0.06224        1.0080 ; qtot   -0.800
        27           h26bf         1   UNL       h26        27     0.06224        1.0080 ; qtot   -0.738
        28           h27bf         1   UNL       h27        28     0.06224        1.0080 ; qtot   -0.676
        29           h28bf         1   UNL       h28        29     0.14803        1.0080 ; qtot   -0.528
        30           h29bf         1   UNL       h29        30     0.14174        1.0080 ; qtot   -0.386
        31           h30bf         1   UNL       h30        31     0.06260        1.0080 ; qtot   -0.323
        32           h31bf         1   UNL       h31        32     0.06260        1.0080 ; qtot   -0.261
        33           h32bf         1   UNL       h32        33     0.04594        1.0080 ; qtot   -0.215
        34           h33bf         1   UNL       h33        34     0.04594        1.0080 ; qtot   -0.169
        35           h34bf         1   UNL       h34        35     0.04594        1.0080 ; qtot   -0.123
        36           h35bf         1   UNL       h35        36     0.04101        1.0080 ; qtot   -0.082
        37           h36bf         1   UNL       h36        37     0.04101        1.0080 ; qtot   -0.041
        38           h37bf         1   UNL       h37        38     0.04101        1.0080 ; qtot   -0.000

[ bonds ]
;       ai        aj funct               r               k
         1        15     1        0.133311   329651.726514
         1        16     1        0.134106   297427.673975
         2         5     1        0.138306   273766.546191
         2        15     1        0.137857   269480.397754
         2        25     1        0.101234   424740.430127
         3         4     1        0.144523   231174.529395
         3        14     1        0.140621   280250.622559
         3        15     1        0.141676   240661.054785
         4         5     1        0.139074   327117.168408
         4        10     1        0.142090   291635.985254
         5        17     1        0.149599   217233.361719
         6        16     1        0.150625   207364.162744
         6        26     1        0.109288   308620.257031
         6        27     1        0.109288   308620.257031
         6        28     1        0.109288   308620.257031
         7         9     1        0.140506   284727.150146
         7        12     1        0.140094   274651.279346
         7        14     1        0.148780   210301.607056
         8        12     1        0.139646   304043.700586
         8        13     1        0.139329   312695.239111
         8        29     1        0.108352   327775.412939
         9        11     1        0.139804   291626.383301
         9        30     1        0.108308   326151.329395
        10        19     1        0.116650  1092296.634180
        11        13     1        0.140817   261167.762207
        11        21     1        0.136021   283997.631543
        12        22     1        0.175568   148953.502759
        13        23     1        0.174803   157838.412158
        14        20     1        0.133612   313780.745020
        16        20     1        0.134857   267835.016260
        17        24     1        0.154031   182414.815479
        17        31     1        0.109454   297919.033496
        17        32     1        0.109454   297919.059033
        18        21     1        0.142958   203003.407642
        18        33     1        0.109350   300422.436328
        18        34     1        0.109350   300422.436328
        18        35     1        0.109350   300422.436328
        24        36     1        0.109371   301475.561182
        24        37     1        0.109371   301475.561182
        24        38     1        0.109371   301475.561182

[ angles ]
;       ai        aj        ak funct           theta             cth
         1        15         2     1      125.974197      545.548438
         1        15         3     1      126.116623      706.362574
         1        16         6     1      117.502029      411.823364
         1        16        20     1      125.757607      652.857159
         2         5         4     1      108.047951      216.066322
         2         5        17     1      121.566895      560.432423
         2        15         3     1      107.763809      167.360000
         3         4         5     1      107.508560      337.903775
         3         4        10     1      128.381165      406.171747
         3        14         7     1      122.083679      397.154498
         3        14        20     1      119.586647      794.167520
         4         3        14     1      138.378510      379.497055
         4         3        15     1      106.110817      249.243161
         4         5        17     1      129.593109      391.908505
         4        10        19     1      177.797638      167.360000
         5         2        15     1      110.026199      450.247680
         5         2        25     1      125.625916      385.538145
         5         4        10     1      123.920242      432.084986
         5        17        24     1      112.757004      601.444765
         5        17        31     1      108.754898      525.951930
         5        17        32     1      108.754898      525.951930
         6        16        20     1      116.710106      471.083472
         7         9        11     1      121.961220      715.901898
         7         9        30     1      118.303810      389.559506
         7        12         8     1      121.115135      621.926357
         7        12        22     1      121.010277      343.751103
         7        14        20     1      117.529617      542.100736
         8        12        22     1      117.640564      384.755816
         8        13        11     1      120.656090      653.339363
         8        13        23     1      119.281372      385.784451
         9         7        12     1      118.203468      590.204862
         9         7        14     1      118.314163      489.062554
         9        11        13     1      118.294655      564.207190
         9        11        21     1      123.748695      430.877336
        11         9        30     1      119.738892      419.326422
        11        13        23     1      119.904541      326.307150
        11        21        18     1      117.902969      538.599790
        12         7        14     1      123.157211      501.991322
        12         8        13     1      119.878159      648.483418
        12         8        29     1      120.210045      392.979787
        13         8        29     1      119.825157      404.303548
        13        11        21     1      117.576111      412.751415
        14         3        15     1      115.341919      837.922994
        14        20        16     1      119.411011      765.630119
        15         1        16     1      113.556641      743.657352
        15         2        25     1      124.210609      418.963412
        16         6        26     1      110.264771      499.738854
        16         6        27     1      110.264771      499.738854
        16         6        28     1      110.264771      499.738854
        17        24        36     1      110.809486      495.462218
        17        24        37     1      110.809486      495.462218
        17        24        38     1      110.809486      495.462218
        21        18        33     1      109.314171      446.706034
        21        18        34     1      109.314171      446.706034
        21        18        35     1      109.314171      446.706034
        24        17        31     1      109.725479      484.357948
        24        17        32     1      109.725479      484.357948
        26         6        27     1      108.747459      354.430307
        26         6        28     1      108.747459      354.430307
        27         6        28     1      108.747459      354.430307
        31        17        32     1      106.706009      360.580569
        33        18        34     1      109.703636      343.615373
        33        18        35     1      109.703636      343.615373
        34        18        35     1      109.703636      343.615373
        36        24        37     1      108.140076      365.165821
        36        24        38     1      108.140076      365.165821
        37        24        38     1      108.140076      365.165821

[ dihedrals ] ; propers for gromacs 4.5 or higher, use funct 9
;       ai        aj        ak        al funct           phase               k        pn
         1        15         2         5     9        0.000000        1.276398         1
         1        15         2         5     9      180.000000        7.049334         2
         1        15         2         5     9        0.000000        0.475914         3
         1        15         2         5     9      180.000000       -0.057847         4
         1        15         2        25     9        0.000000       -1.423542         1
         1        15         2        25     9      180.000000        2.509441         2
         1        15         2        25     9        0.000000        0.272786         3
         1        15         2        25     9      180.000000       -0.143545         4
         1        15         3         4     9        0.000000        0.081711         1
         1        15         3         4     9      180.000000       12.463947         2
         1        15         3         4     9        0.000000       -1.523737         3
         1        15         3         4     9      180.000000       -0.050089         4
         1        15         3        14     9        0.000000       -0.073814         1
         1        15         3        14     9      180.000000       11.334612         2
         1        15         3        14     9        0.000000       -1.063969         3
         1        15         3        14     9      180.000000       -0.049555         4
         1        16         6        26     9        0.000000       -0.056745         1
         1        16         6        26     9      180.000000        0.024115         2
         1        16         6        26     9        0.000000       -0.020143         3
         1        16         6        26     9      180.000000       -0.011967         4
         1        16         6        27     9        0.000000       -0.056745         1
         1        16         6        27     9      180.000000        0.024115         2
         1        16         6        27     9        0.000000       -0.020143         3
         1        16         6        27     9      180.000000       -0.011967         4
         1        16         6        28     9        0.000000       -0.056745         1
         1        16         6        28     9      180.000000        0.024115         2
         1        16         6        28     9        0.000000       -0.020143         3
         1        16         6        28     9      180.000000       -0.011967         4
         1        16        20        14     9        0.000000        0.134099         1
         1        16        20        14     9      180.000000       15.393097         2
         1        16        20        14     9        0.000000        0.465465         3
         1        16        20        14     9      180.000000       -0.653652         4
         2         5         4         3     9        0.000000       -0.268519         1
         2         5         4         3     9      180.000000       30.811955         2
         2         5         4         3     9        0.000000       -6.195940         3
         2         5         4         3     9      180.000000       -0.523562         4
         2         5         4        10     9        0.000000        0.353993         1
         2         5         4        10     9      180.000000       15.729782         2
         2         5         4        10     9        0.000000        0.842888         3
         2         5         4        10     9      180.000000       -0.788882         4
         2         5        17        24     9        0.000000        0.003115         1
         2         5        17        24     9      180.000000        0.412938         2
         2         5        17        24     9        0.000000        0.297151         3
         2         5        17        24     9      180.000000        0.012939         4
         2         5        17        31     9        0.000000       -0.017919         1
         2         5        17        31     9      180.000000        0.022257         2
         2         5        17        31     9        0.000000        0.356739         3
         2         5        17        31     9      180.000000        0.017825         4
         2         5        17        32     9        0.000000       -0.017919         1
         2         5        17        32     9      180.000000        0.022257         2
         2         5        17        32     9        0.000000        0.356739         3
         2         5        17        32     9      180.000000        0.017825         4
         2        15         1        16     9        0.000000        0.138138         1
         2        15         1        16     9      180.000000       20.755034         2
         2        15         1        16     9        0.000000        0.353693         3
         2        15         1        16     9      180.000000       -0.853886         4
         2        15         3         4     9        0.000000       -0.182275         1
         2        15         3         4     9      180.000000       18.083188         2
         2        15         3         4     9        0.000000       -5.950804         3
         2        15         3         4     9      180.000000       -0.129660         4
         2        15         3        14     9        0.000000       -0.114994         1
         2        15         3        14     9      180.000000       11.479290         2
         2        15         3        14     9        0.000000       -2.980235         3
         2        15         3        14     9      180.000000        0.116232         4
         3         4         5        17     9        0.000000        0.317172         1
         3         4         5        17     9      180.000000       18.219618         2
         3         4         5        17     9        0.000000        0.486135         3
         3         4         5        17     9      180.000000       -1.203242         4
         3         4        10        19     9        0.000000        0.000000         1
         3         4        10        19     9      180.000000        0.000000         2
         3         4        10        19     9        0.000000        0.000000         3
         3         4        10        19     9      180.000000        0.000000         4
         3        14         7         9     9        0.000000        0.353276         1
         3        14         7         9     9      180.000000        4.234460         2
         3        14         7         9     9        0.000000       -0.143830         3
         3        14         7         9     9      180.000000        0.414245         4
         3        14         7        12     9        0.000000       -0.934575         1
         3        14         7        12     9      180.000000        2.818117         2
         3        14         7        12     9        0.000000        0.012012         3
         3        14         7        12     9      180.000000        0.234951         4
         3        14        20        16     9        0.000000       -0.444574         1
         3        14        20        16     9      180.000000       21.864143         2
         3        14        20        16     9        0.000000       -1.259393         3
         3        14        20        16     9      180.000000       -0.407355         4
         3        15         1        16     9        0.000000       -0.576656         1
         3        15         1        16     9      180.000000       18.126905         2
         3        15         1        16     9        0.000000       -1.002587         3
         3        15         1        16     9      180.000000       -0.389326         4
         3        15         2         5     9        0.000000       -0.310631         1
         3        15         2         5     9      180.000000       21.545739         2
         3        15         2         5     9        0.000000       -5.689440         3
         3        15         2         5     9      180.000000       -1.053999         4
         3        15         2        25     9        0.000000        0.857384         1
         3        15         2        25     9      180.000000        3.527938         2
         3        15         2        25     9        0.000000        0.503180         3
         3        15         2        25     9      180.000000        0.200385         4
         4         3        14         7     9        0.000000        0.285994         1
         4         3        14         7     9      180.000000       12.244380         2
         4         3        14         7     9        0.000000        0.394754         3
         4         3        14         7     9      180.000000       -0.426705         4
         4         3        14        20     9        0.000000       -0.073706         1
         4         3        14        20     9      180.000000        9.720575         2
         4         3        14        20     9        0.000000       -0.060094         3
         4         3        14        20     9      180.000000       -0.191937         4
         4         5         2        15     9        0.000000       -0.016355         1
         4         5         2        15     9      180.000000       24.180008         2
         4         5         2        15     9        0.000000       -4.867712         3
         4         5         2        15     9      180.000000       -0.580292         4
         4         5         2        25     9        0.000000        0.749676         1
         4         5         2        25     9      180.000000        4.574591         2
         4         5         2        25     9        0.000000        0.431681         3
         4         5         2        25     9      180.000000        0.084550         4
         4         5        17        24     9        0.000000       -0.691606         1
         4         5        17        24     9      180.000000        0.284846         2
         4         5        17        24     9        0.000000       -0.098595         3
         4         5        17        24     9      180.000000        0.030555         4
         4         5        17        31     9        0.000000        0.088726         1
         4         5        17        31     9      180.000000       -0.017806         2
         4         5        17        31     9        0.000000       -0.266523         3
         4         5        17        31     9      180.000000        0.082560         4
         4         5        17        32     9        0.000000        0.088726         1
         4         5        17        32     9      180.000000       -0.017806         2
         4         5        17        32     9        0.000000       -0.266523         3
         4         5        17        32     9      180.000000        0.082560         4
         5         4         3        14     9        0.000000       -0.521925         1
         5         4         3        14     9      180.000000        4.352695         2
         5         4         3        14     9        0.000000       -1.455540         3
         5         4         3        14     9      180.000000        0.243235         4
         5         4         3        15     9        0.000000       -0.202337         1
         5         4         3        15     9      180.000000       24.698449         2
         5         4         3        15     9        0.000000       -9.794642         3
         5         4         3        15     9      180.000000        0.095875         4
         5         4        10        19     9        0.000000        0.000000         1
         5         4        10        19     9      180.000000        0.000000         2
         5         4        10        19     9        0.000000        0.000000         3
         5         4        10        19     9      180.000000        0.000000         4
         5        17        24        36     9        0.000000       -0.007888         1
         5        17        24        36     9      180.000000        0.019573         2
         5        17        24        36     9        0.000000        0.576654         3
         5        17        24        36     9      180.000000        0.012228         4
         5        17        24        37     9        0.000000       -0.007888         1
         5        17        24        37     9      180.000000        0.019573         2
         5        17        24        37     9        0.000000        0.576654         3
         5        17        24        37     9      180.000000        0.012228         4
         5        17        24        38     9        0.000000       -0.007888         1
         5        17        24        38     9      180.000000        0.019573         2
         5        17        24        38     9        0.000000        0.576654         3
         5        17        24        38     9      180.000000        0.012228         4
         6        16         1        15     9        0.000000        0.193878         1
         6        16         1        15     9      180.000000       22.939405         2
         6        16         1        15     9        0.000000        0.749103         3
         6        16         1        15     9      180.000000       -0.970015         4
         6        16        20        14     9        0.000000        0.199709         1
         6        16        20        14     9      180.000000       17.645686         2
         6        16        20        14     9        0.000000        0.283255         3
         6        16        20        14     9      180.000000       -0.924157         4
         7         9        11        13     9        0.000000       -0.060943         1
         7         9        11        13     9      180.000000       15.343434         2
         7         9        11        13     9        0.000000       -0.951053         3
         7         9        11        13     9      180.000000       -0.297026         4
         7         9        11        21     9        0.000000        0.328931         1
         7         9        11        21     9      180.000000       17.653283         2
         7         9        11        21     9        0.000000        0.107279         3
         7         9        11        21     9      180.000000       -0.263880         4
         7        12         8        13     9        0.000000       -0.158522         1
         7        12         8        13     9      180.000000       17.421867         2
         7        12         8        13     9        0.000000       -1.615375         3
         7        12         8        13     9      180.000000       -0.405921         4
         7        12         8        29     9        0.000000        0.185218         1
         7        12         8        29     9      180.000000       13.799839         2
         7        12         8        29     9        0.000000       -0.646002         3
         7        12         8        29     9      180.000000        0.086589         4
         7        14         3        15     9        0.000000        0.453032         1
         7        14         3        15     9      180.000000       15.170517         2
         7        14         3        15     9        0.000000        0.240596         3
         7        14         3        15     9      180.000000       -0.750802         4
         7        14        20        16     9        0.000000        0.268295         1
         7        14        20        16     9      180.000000       21.250342         2
         7        14        20        16     9        0.000000        0.643764         3
         7        14        20        16     9      180.000000       -0.861045         4
         8        12         7         9     9        0.000000       -0.087125         1
         8        12         7         9     9      180.000000       17.586615         2
         8        12         7         9     9        0.000000       -1.504462         3
         8        12         7         9     9      180.000000       -0.393555         4
         8        12         7        14     9        0.000000        0.005164         1
         8        12         7        14     9      180.000000       13.301821         2
         8        12         7        14     9        0.000000       -0.192111         3
         8        12         7        14     9      180.000000       -0.239877         4
         8        13        11         9     9        0.000000       -0.091986         1
         8        13        11         9     9      180.000000       13.997009         2
         8        13        11         9     9        0.000000       -0.877784         3
         8        13        11         9     9      180.000000       -0.090945         4
         8        13        11        21     9        0.000000        0.333678         1
         8        13        11        21     9      180.000000       15.415492         2
         8        13        11        21     9        0.000000        0.052206         3
         8        13        11        21     9      180.000000       -0.072282         4
         9         7        12        22     9        0.000000        0.305553         1
         9         7        12        22     9      180.000000       19.052469         2
         9         7        12        22     9        0.000000        0.288052         3
         9         7        12        22     9      180.000000       -0.815796         4
         9         7        14        20     9        0.000000       -2.261839         1
         9         7        14        20     9      180.000000        5.199888         2
         9         7        14        20     9        0.000000       -0.350427         3
         9         7        14        20     9      180.000000        0.446651         4
         9        11        13        23     9        0.000000        0.094534         1
         9        11        13        23     9      180.000000       14.818397         2
         9        11        13        23     9        0.000000       -0.065468         3
         9        11        13        23     9      180.000000       -0.263053         4
         9        11        21        18     9        0.000000       -1.393501         1
         9        11        21        18     9      180.000000        4.709946         2
         9        11        21        18     9        0.000000       -1.151886         3
         9        11        21        18     9      180.000000        0.548802         4
        10         4         3        14     9        0.000000        0.249699         1
        10         4         3        14     9      180.000000        5.507246         2
        10         4         3        14     9        0.000000        0.430472         3
        10         4         3        14     9      180.000000       -0.083824         4
        10         4         3        15     9        0.000000        1.013849         1
        10         4         3        15     9      180.000000       11.415537         2
        10         4         3        15     9        0.000000        0.744087         3
        10         4         3        15     9      180.000000       -0.507994         4
        10         4         5        17     9        0.000000       -0.293222         1
        10         4         5        17     9      180.000000       11.943264         2
        10         4         5        17     9        0.000000        0.659201         3
        10         4         5        17     9      180.000000       -0.179991         4
        11         9         7        12     9        0.000000       -0.237846         1
        11         9         7        12     9      180.000000       17.737701         2
        11         9         7        12     9        0.000000       -1.641716         3
        11         9         7        12     9      180.000000       -0.357085         4
        11         9         7        14     9        0.000000       -0.002635         1
        11         9         7        14     9      180.000000       15.667278         2
        11         9         7        14     9        0.000000       -0.136417         3
        11         9         7        14     9      180.000000       -0.354601         4
        11        13         8        12     9        0.000000       -0.278984         1
        11        13         8        12     9      180.000000       17.716254         2
        11        13         8        12     9        0.000000       -1.461383         3
        11        13         8        12     9      180.000000       -0.415959         4
        11        13         8        29     9        0.000000        0.160085         1
        11        13         8        29     9      180.000000       13.524140         2
        11        13         8        29     9        0.000000       -0.492359         3
        11        13         8        29     9      180.000000        0.121120         4
        11        21        18        33     9        0.000000       -0.035373         1
        11        21        18        33     9      180.000000        0.005513         2
        11        21        18        33     9        0.000000        0.522930         3
        11        21        18        33     9      180.000000       -0.026902         4
        11        21        18        34     9        0.000000       -0.035373         1
        11        21        18        34     9      180.000000        0.005513         2
        11        21        18        34     9        0.000000        0.522930         3
        11        21        18        34     9      180.000000       -0.026902         4
        11        21        18        35     9        0.000000       -0.035373         1
        11        21        18        35     9      180.000000        0.005513         2
        11        21        18        35     9        0.000000        0.522930         3
        11        21        18        35     9      180.000000       -0.026902         4
        12         7         9        30     9        0.000000        0.025608         1
        12         7         9        30     9      180.000000       13.441008         2
        12         7         9        30     9        0.000000       -0.721141         3
        12         7         9        30     9      180.000000        0.223906         4
        12         7        14        20     9        0.000000        1.354557         1
        12         7        14        20     9      180.000000        3.198882         2
        12         7        14        20     9        0.000000        0.498959         3
        12         7        14        20     9      180.000000        0.015294         4
        12         8        13        23     9        0.000000        0.271047         1
        12         8        13        23     9      180.000000       18.760299         2
        12         8        13        23     9        0.000000        0.275045         3
        12         8        13        23     9      180.000000       -0.665679         4
        13         8        12        22     9        0.000000        0.344077         1
        13         8        12        22     9      180.000000       19.457400         2
        13         8        12        22     9        0.000000        0.328713         3
        13         8        12        22     9      180.000000       -0.753218         4
        13        11         9        30     9        0.000000        0.192952         1
        13        11         9        30     9      180.000000       12.549842         2
        13        11         9        30     9        0.000000       -0.427659         3
        13        11         9        30     9      180.000000        0.163219         4
        13        11        21        18     9        0.000000        3.202602         1
        13        11        21        18     9      180.000000        2.617255         2
        13        11        21        18     9        0.000000        0.770248         3
        13        11        21        18     9      180.000000        0.230797         4
        14         7         9        30     9        0.000000       -0.073360         1
        14         7         9        30     9      180.000000       12.745244         2
        14         7         9        30     9        0.000000       -0.269909         3
        14         7         9        30     9      180.000000        0.237957         4
        14         7        12        22     9        0.000000        0.184920         1
        14         7        12        22     9      180.000000       16.112458         2
        14         7        12        22     9        0.000000        0.353360         3
        14         7        12        22     9      180.000000       -0.766676         4
        15         1        16        20     9        0.000000        0.093927         1
        15         1        16        20     9      180.000000       20.718476         2
        15         1        16        20     9        0.000000        0.622662         3
        15         1        16        20     9      180.000000       -0.541973         4
        15         2         5        17     9        0.000000        1.149291         1
        15         2         5        17     9      180.000000       14.092728         2
        15         2         5        17     9        0.000000        0.742385         3
        15         2         5        17     9      180.000000       -0.889365         4
        15         3        14        20     9        0.000000       -0.334025         1
        15         3        14        20     9      180.000000       15.092831         2
        15         3        14        20     9        0.000000       -1.023574         3
        15         3        14        20     9      180.000000       -0.290432         4
        17         5         2        25     9        0.000000       -0.684078         1
        17         5         2        25     9      180.000000        2.329081         2
        17         5         2        25     9        0.000000        0.109371         3
        17         5         2        25     9      180.000000        0.123175         4
        20        16         6        26     9        0.000000       -0.015650         1
        20        16         6        26     9      180.000000        0.017245         2
        20        16         6        26     9        0.000000        0.039590         3
        20        16         6        26     9      180.000000       -0.011188         4
        20        16         6        27     9        0.000000       -0.015650         1
        20        16         6        27     9      180.000000        0.017245         2
        20        16         6        27     9        0.000000        0.039590         3
        20        16         6        27     9      180.000000       -0.011188         4
        20        16         6        28     9        0.000000       -0.015650         1
        20        16         6        28     9      180.000000        0.017245         2
        20        16         6        28     9        0.000000        0.039590         3
        20        16         6        28     9      180.000000       -0.011188         4
        21        11         9        30     9        0.000000        0.094766         1
        21        11         9        30     9      180.000000       13.325384         2
        21        11         9        30     9        0.000000       -0.103308         3
        21        11         9        30     9      180.000000        0.289726         4
        21        11        13        23     9        0.000000       -0.195078         1
        21        11        13        23     9      180.000000       17.539453         2
        21        11        13        23     9        0.000000       -0.084371         3
        21        11        13        23     9      180.000000       -0.427696         4
        22        12         8        29     9        0.000000        0.121927         1
        22        12         8        29     9      180.000000       14.246097         2
        22        12         8        29     9        0.000000       -0.128840         3
        22        12         8        29     9      180.000000        0.173256         4
        23        13         8        29     9        0.000000        0.140764         1
        23        13         8        29     9      180.000000       13.892994         2
        23        13         8        29     9        0.000000       -0.188330         3
        23        13         8        29     9      180.000000        0.163076         4
        31        17        24        36     9        0.000000       -0.023501         1
        31        17        24        36     9      180.000000        0.017196         2
        31        17        24        36     9        0.000000        0.560237         3
        31        17        24        36     9      180.000000        0.000757         4
        31        17        24        37     9        0.000000       -0.023501         1
        31        17        24        37     9      180.000000        0.017196         2
        31        17        24        37     9        0.000000        0.560237         3
        31        17        24        37     9      180.000000        0.000757         4
        31        17        24        38     9        0.000000       -0.023501         1
        31        17        24        38     9      180.000000        0.017196         2
        31        17        24        38     9        0.000000        0.560237         3
        31        17        24        38     9      180.000000        0.000757         4
        32        17        24        36     9        0.000000       -0.023501         1
        32        17        24        36     9      180.000000        0.017196         2
        32        17        24        36     9        0.000000        0.560237         3
        32        17        24        36     9      180.000000        0.000757         4
        32        17        24        37     9        0.000000       -0.023501         1
        32        17        24        37     9      180.000000        0.017196         2
        32        17        24        37     9        0.000000        0.560237         3
        32        17        24        37     9      180.000000        0.000757         4
        32        17        24        38     9        0.000000       -0.023501         1
        32        17        24        38     9      180.000000        0.017196         2
        32        17        24        38     9        0.000000        0.560237         3
        32        17        24        38     9      180.000000        0.000757         4

[ dihedrals ] ; impropers
;       ai        aj        ak        al funct           phase               k        pn
        14         3         7        20     4      180.000000        8.436076         2
        14         7        20         3     4      180.000000        8.436076         2
        14        20         3         7     4      180.000000        8.436076         2
        16         1         6        20     4      180.000000       27.893333         2
        16         6        20         1     4      180.000000       27.893333         2
        16        20         1         6     4      180.000000       27.893333         2

[ pairs ]
;       ai        aj funct
         1         4     1
         1         5     1
         1        14     1
         1        25     1
         1        26     1
         1        27     1
         1        28     1
         2        10     1
         2        14     1
         2        16     1
         2        24     1
         2        31     1
         2        32     1
         3         9     1
         3        12     1
         3        16     1
         3        17     1
         3        19     1
         3        25     1
         4         7     1
         4        20     1
         4        24     1
         4        25     1
         4        31     1
         4        32     1
         5        14     1
         5        19     1
         5        36     1
         5        37     1
         5        38     1
         6        14     1
         6        15     1
         7        13     1
         7        15     1
         7        16     1
         7        21     1
         7        29     1
         8         9     1
         8        14     1
         8        21     1
         9        18     1
         9        20     1
         9        22     1
         9        23     1
        10        14     1
        10        15     1
        10        17     1
        11        12     1
        11        14     1
        11        29     1
        11        33     1
        11        34     1
        11        35     1
        12        20     1
        12        23     1
        12        30     1
        13        18     1
        13        22     1
        13        30     1
        14        22     1
        14        30     1
        15        17     1
        15        20     1
        17        25     1
        20        26     1
        20        27     1
        20        28     1
        21        23     1
        21        30     1
        22        29     1
        23        29     1
        31        36     1
        31        37     1
        31        38     1
        32        36     1
        32        37     1
        32        38     1
