; ITP file created by ByteFF-ML, 2025-12-06 08:15:17.047508

[ atomtypes ]
;name           bonded.type        at.num        mass        charge   ptype           sigma         epsilon
 n0bf                                   7      0.0000       0.00000       A     3.38497e-01     3.92959e-01
 n1bf                                   7      0.0000       0.00000       A     3.20704e-01     8.51720e-01
 c2bf                                   6      0.0000       0.00000       A     3.31526e-01     4.09705e-01
 c3bf                                   6      0.0000       0.00000       A     3.31586e-01     4.12209e-01
 c4bf                                   6      0.0000       0.00000       A     3.31580e-01     4.12383e-01
 c5bf                                   6      0.0000       0.00000       A     3.39816e-01     4.51116e-01
 c6bf                                   6      0.0000       0.00000       A     3.31666e-01     4.09227e-01
 c7bf                                   6      0.0000       0.00000       A     3.31433e-01     4.13971e-01
 c8bf                                   6      0.0000       0.00000       A     3.31712e-01     4.14364e-01
 c9bf                                   6      0.0000       0.00000       A     3.31528e-01     4.12206e-01
 c10bf                                  6      0.0000       0.00000       A     3.31391e-01     4.13545e-01
 c11bf                                  6      0.0000       0.00000       A     3.31503e-01     4.12081e-01
 c12bf                                  6      0.0000       0.00000       A     3.31522e-01     4.11202e-01
 c13bf                                  6      0.0000       0.00000       A     3.31455e-01     4.11749e-01
 c14bf                                  6      0.0000       0.00000       A     3.31489e-01     4.11120e-01
 c15bf                                  6      0.0000       0.00000       A     3.39751e-01     4.50009e-01
 n16bf                                  7      0.0000       0.00000       A     3.38362e-01     3.93819e-01
 o17bf                                  8      0.0000       0.00000       A     3.15742e-01     3.03491e-01
 cl18bf                                17      0.0000       0.00000       A     3.46633e-01     1.10664e+00
 cl19bf                                17      0.0000       0.00000       A     3.46637e-01     1.10463e+00
 f20bf                                  9      0.0000       0.00000       A     3.03555e-01     3.47688e-01
 h21bf                                  1      0.0000       0.00000       A     1.10934e-01     4.10940e-02
 h22bf                                  1      0.0000       0.00000       A     2.53621e-01     6.82431e-02
 h23bf                                  1      0.0000       0.00000       A     2.59926e-01     8.74742e-02
 h24bf                                  1      0.0000       0.00000       A     2.59926e-01     8.74742e-02
 h25bf                                  1      0.0000       0.00000       A     2.59926e-01     8.74742e-02
 h26bf                                  1      0.0000       0.00000       A     2.62578e-01     6.76574e-02
 h27bf                                  1      0.0000       0.00000       A     2.62483e-01     6.78888e-02
 h28bf                                  1      0.0000       0.00000       A     2.42080e-01     8.75859e-02
 h29bf                                  1      0.0000       0.00000       A     2.42080e-01     8.75859e-02
 h30bf                                  1      0.0000       0.00000       A     2.42080e-01     8.75859e-02

[ moleculetype ]
;name             nrexcl
 cmpd_11               3

[ atoms ]
;       nr            type      resi   res      atom      cgnr      charge          mass ; qtot
         1            n0bf         1   UNL        n0         1    -0.19577       14.0070 ; qtot   -0.196
         2            n1bf         1   UNL        n1         2    -0.32763       14.0070 ; qtot   -0.523
         3            c2bf         1   UNL        c2         3    -0.22425       12.0110 ; qtot   -0.748
         4            c3bf         1   UNL        c3         4     0.13587       12.0110 ; qtot   -0.612
         5            c4bf         1   UNL        c4         5    -0.18223       12.0110 ; qtot   -0.794
         6            c5bf         1   UNL        c5         6    -0.13074       12.0110 ; qtot   -0.925
         7            c6bf         1   UNL        c6         7    -0.10863       12.0110 ; qtot   -1.033
         8            c7bf         1   UNL        c7         8    -0.07181       12.0110 ; qtot   -1.105
         9            c8bf         1   UNL        c8         9    -0.13135       12.0110 ; qtot   -1.237
        10            c9bf         1   UNL        c9        10     0.13792       12.0110 ; qtot   -1.099
        11           c10bf         1   UNL       c10        11     0.14248       12.0110 ; qtot   -0.956
        12           c11bf         1   UNL       c11        12     0.09426       12.0110 ; qtot   -0.862
        13           c12bf         1   UNL       c12        13     0.24289       12.0110 ; qtot   -0.619
        14           c13bf         1   UNL       c13        14     0.14488       12.0110 ; qtot   -0.474
        15           c14bf         1   UNL       c14        15     0.15936       12.0110 ; qtot   -0.315
        16           c15bf         1   UNL       c15        16     0.14319       12.0110 ; qtot   -0.172
        17           n16bf         1   UNL       n16        17    -0.19650       14.0070 ; qtot   -0.368
        18           o17bf         1   UNL       o17        18    -0.33499       15.9990 ; qtot   -0.703
        19          cl18bf         1   UNL      cl18        19    -0.18967       35.4530 ; qtot   -0.893
        20          cl19bf         1   UNL      cl19        20    -0.17905       35.4530 ; qtot   -1.072
        21           f20bf         1   UNL       f20        21    -0.14205       18.9980 ; qtot   -1.214
        22           h21bf         1   UNL       h21        22     0.36848        1.0080 ; qtot   -0.845
        23           h22bf         1   UNL       h22        23     0.23103        1.0080 ; qtot   -0.614
        24           h23bf         1   UNL       h23        24     0.06224        1.0080 ; qtot   -0.552
        25           h24bf         1   UNL       h24        25     0.06224        1.0080 ; qtot   -0.490
        26           h25bf         1   UNL       h25        26     0.06224        1.0080 ; qtot   -0.428
        27           h26bf         1   UNL       h26        27     0.14803        1.0080 ; qtot   -0.280
        28           h27bf         1   UNL       h27        28     0.14174        1.0080 ; qtot   -0.138
        29           h28bf         1   UNL       h28        29     0.04594        1.0080 ; qtot   -0.092
        30           h29bf         1   UNL       h29        30     0.04594        1.0080 ; qtot   -0.046
        31           h30bf         1   UNL       h30        31     0.04594        1.0080 ; qtot    0.000

[ bonds ]
;       ai        aj funct               r               k
         1        14     1        0.133698   321418.332617
         1        15     1        0.134066   298996.188770
         2         5     1        0.139559   270432.599951
         2        14     1        0.136998   285581.443066
         2        22     1        0.101069   430008.301660
         3         4     1        0.143239   241825.036230
         3        13     1        0.140755   278974.482129
         3        14     1        0.142266   232539.768799
         4         5     1        0.137081   380926.488184
         4        21     1        0.134729   325283.271973
         5        23     1        0.107967   343558.010498
         6        15     1        0.150625   207364.162744
         6        24     1        0.109288   308620.257031
         6        25     1        0.109288   308620.257031
         6        26     1        0.109288   308620.257031
         7         9     1        0.140504   284806.238574
         7        11     1        0.140081   274956.064746
         7        13     1        0.148855   209085.044702
         8        11     1        0.139646   304043.700586
         8        12     1        0.139329   312695.213574
         8        27     1        0.108352   327775.412939
         9        10     1        0.139804   291626.383301
         9        28     1        0.108308   326151.329395
        10        12     1        0.140817   261167.762207
        10        18     1        0.136021   283997.631543
        11        19     1        0.175568   148953.502759
        12        20     1        0.174803   157838.412158
        13        17     1        0.133542   317048.371387
        15        17     1        0.135092   262379.089453
        16        18     1        0.142958   203003.407642
        16        29     1        0.109350   300422.436328
        16        30     1        0.109350   300422.436328
        16        31     1        0.109350   300422.436328

[ angles ]
;       ai        aj        ak funct           theta             cth
         1        14         2     1      126.139603      553.799988
         1        14         3     1      125.791824      705.689097
         1        15         6     1      117.482994      405.825847
         1        15        17     1      126.014320      643.839878
         2         5         4     1      107.693039      361.294586
         2         5        23     1      122.072144      453.323338
         2        14         3     1      107.848045      167.360000
         3         4         5     1      108.749535      342.034115
         3         4        21     1      126.153931      467.886736
         3        13         7     1      121.809799      399.511764
         3        13        17     1      119.802612      774.557956
         4         3        13     1      139.172821      430.072598
         4         3        14     1      105.402573      556.660592
         4         5        23     1      129.868729      353.447001
         5         2        14     1      109.213646      438.857076
         5         2        22     1      126.597023      396.890955
         5         4        21     1      124.766159      564.588843
         6        15        17     1      116.454117      472.769176
         7         9        10     1      121.968307      717.833971
         7         9        28     1      118.245789      389.915812
         7        11         8     1      121.117493      624.906601
         7        11        19     1      121.054420      343.649242
         7        13        17     1      117.495605      544.466877
         8        11        19     1      117.640564      384.755816
         8        12        10     1      120.656090      653.339363
         8        12        20     1      119.281372      385.784419
         9         7        11     1      118.168503      592.136233
         9         7        13     1      118.264481      490.503677
         9        10        12     1      118.294655      564.207063
         9        10        18     1      123.748695      430.877336
        10         9        28     1      119.738892      419.326422
        10        12        20     1      119.904556      326.307150
        10        18        16     1      117.902969      538.599790
        11         7        13     1      123.234032      505.658866
        11         8        12     1      119.878151      648.483418
        11         8        27     1      120.210045      392.979787
        12         8        27     1      119.825157      404.303548
        12        10        18     1      117.576111      412.751447
        13         3        14     1      115.581383      843.318794
        13        17        15     1      119.420578      739.882265
        14         1        15     1      113.623123      746.834487
        14         2        22     1      124.052818      425.057237
        15         6        24     1      110.264771      499.738917
        15         6        25     1      110.264771      499.738917
        15         6        26     1      110.264771      499.738917
        18        16        29     1      109.314163      446.706034
        18        16        30     1      109.314163      446.706034
        18        16        31     1      109.314163      446.706034
        24         6        25     1      108.747475      354.430307
        24         6        26     1      108.747475      354.430307
        25         6        26     1      108.747475      354.430371
        29        16        30     1      109.703636      343.615405
        29        16        31     1      109.703636      343.615405
        30        16        31     1      109.703636      343.615405

[ dihedrals ] ; propers for gromacs 4.5 or higher, use funct 9
;       ai        aj        ak        al funct           phase               k        pn
         1        14         2         5     9        0.000000        1.112674         1
         1        14         2         5     9      180.000000        6.745651         2
         1        14         2         5     9        0.000000        0.395518         3
         1        14         2         5     9      180.000000        0.025712         4
         1        14         2        22     9        0.000000       -1.756384         1
         1        14         2        22     9      180.000000        2.938353         2
         1        14         2        22     9        0.000000        0.095873         3
         1        14         2        22     9      180.000000       -0.151462         4
         1        14         3         4     9        0.000000        0.113082         1
         1        14         3         4     9      180.000000       12.099291         2
         1        14         3         4     9        0.000000       -1.656979         3
         1        14         3         4     9      180.000000       -0.086150         4
         1        14         3        13     9        0.000000       -0.147059         1
         1        14         3        13     9      180.000000       10.540142         2
         1        14         3        13     9        0.000000       -1.218481         3
         1        14         3        13     9      180.000000       -0.056080         4
         1        15         6        24     9        0.000000       -0.070429         1
         1        15         6        24     9      180.000000        0.026998         2
         1        15         6        24     9        0.000000       -0.027958         3
         1        15         6        24     9      180.000000       -0.017397         4
         1        15         6        25     9        0.000000       -0.070429         1
         1        15         6        25     9      180.000000        0.026998         2
         1        15         6        25     9        0.000000       -0.027958         3
         1        15         6        25     9      180.000000       -0.017397         4
         1        15         6        26     9        0.000000       -0.070429         1
         1        15         6        26     9      180.000000        0.026998         2
         1        15         6        26     9        0.000000       -0.027958         3
         1        15         6        26     9      180.000000       -0.017397         4
         1        15        17        13     9        0.000000        0.226658         1
         1        15        17        13     9      180.000000       14.547480         2
         1        15        17        13     9        0.000000        0.463309         3
         1        15        17        13     9      180.000000       -0.556545         4
         2         5         4         3     9        0.000000       -0.156303         1
         2         5         4         3     9      180.000000       31.454894         2
         2         5         4         3     9        0.000000       -5.238508         3
         2         5         4         3     9      180.000000       -0.942512         4
         2         5         4        21     9        0.000000        1.032710         1
         2         5         4        21     9      180.000000       27.671681         2
         2         5         4        21     9        0.000000        1.125719         3
         2         5         4        21     9      180.000000       -1.371384         4
         2        14         1        15     9        0.000000        0.249656         1
         2        14         1        15     9      180.000000       20.193996         2
         2        14         1        15     9        0.000000        0.332045         3
         2        14         1        15     9      180.000000       -0.886364         4
         2        14         3         4     9        0.000000       -0.005512         1
         2        14         3         4     9      180.000000       17.272142         2
         2        14         3         4     9        0.000000       -6.483201         3
         2        14         3         4     9      180.000000       -0.143345         4
         2        14         3        13     9        0.000000       -0.106294         1
         2        14         3        13     9      180.000000        9.930145         2
         2        14         3        13     9        0.000000       -2.821120         3
         2        14         3        13     9      180.000000        0.030477         4
         3         4         5        23     9        0.000000        0.533621         1
         3         4         5        23     9      180.000000       14.285098         2
         3         4         5        23     9        0.000000       -0.003038         3
         3         4         5        23     9      180.000000       -0.418885         4
         3        13         7         9     9        0.000000        1.096068         1
         3        13         7         9     9      180.000000        4.104876         2
         3        13         7         9     9        0.000000       -0.178925         3
         3        13         7         9     9      180.000000        0.403967         4
         3        13         7        11     9        0.000000       -1.049129         1
         3        13         7        11     9      180.000000        2.715646         2
         3        13         7        11     9        0.000000        0.152851         3
         3        13         7        11     9      180.000000        0.172531         4
         3        13        17        15     9        0.000000       -0.403563         1
         3        13        17        15     9      180.000000       22.211130         2
         3        13        17        15     9        0.000000       -1.293389         3
         3        13        17        15     9      180.000000       -0.439874         4
         3        14         1        15     9        0.000000       -0.368195         1
         3        14         1        15     9      180.000000       17.578667         2
         3        14         1        15     9        0.000000       -1.009065         3
         3        14         1        15     9      180.000000       -0.420780         4
         3        14         2         5     9        0.000000        0.209930         1
         3        14         2         5     9      180.000000       22.615485         2
         3        14         2         5     9        0.000000       -6.074103         3
         3        14         2         5     9      180.000000       -1.082798         4
         3        14         2        22     9        0.000000        1.141134         1
         3        14         2        22     9      180.000000        4.116700         2
         3        14         2        22     9        0.000000        0.427989         3
         3        14         2        22     9      180.000000        0.222319         4
         4         3        13         7     9        0.000000        0.163496         1
         4         3        13         7     9      180.000000       11.452729         2
         4         3        13         7     9        0.000000        0.428397         3
         4         3        13         7     9      180.000000       -0.532530         4
         4         3        13        17     9        0.000000        0.038205         1
         4         3        13        17     9      180.000000        7.885548         2
         4         3        13        17     9        0.000000        0.045980         3
         4         3        13        17     9      180.000000       -0.242649         4
         4         5         2        14     9        0.000000        0.431357         1
         4         5         2        14     9      180.000000       19.088431         2
         4         5         2        14     9        0.000000       -4.689681         3
         4         5         2        14     9      180.000000       -1.010262         4
         4         5         2        22     9        0.000000        0.540885         1
         4         5         2        22     9      180.000000        3.021112         2
         4         5         2        22     9        0.000000        0.488224         3
         4         5         2        22     9      180.000000        0.033765         4
         5         4         3        13     9        0.000000       -0.496879         1
         5         4         3        13     9      180.000000        3.104531         2
         5         4         3        13     9        0.000000       -1.247730         3
         5         4         3        13     9      180.000000        0.231791         4
         5         4         3        14     9        0.000000       -0.012849         1
         5         4         3        14     9      180.000000       24.028612         2
         5         4         3        14     9        0.000000       -9.469698         3
         5         4         3        14     9      180.000000        0.246426         4
         6        15         1        14     9        0.000000        0.353821         1
         6        15         1        14     9      180.000000       22.682354         2
         6        15         1        14     9        0.000000        0.854133         3
         6        15         1        14     9      180.000000       -0.967750         4
         6        15        17        13     9        0.000000        0.172017         1
         6        15        17        13     9      180.000000       16.550039         2
         6        15        17        13     9        0.000000        0.271152         3
         6        15        17        13     9      180.000000       -0.825040         4
         7         9        10        12     9        0.000000       -0.069295         1
         7         9        10        12     9      180.000000       15.301091         2
         7         9        10        12     9        0.000000       -0.939053         3
         7         9        10        12     9      180.000000       -0.294626         4
         7         9        10        18     9        0.000000        0.335047         1
         7         9        10        18     9      180.000000       17.604292         2
         7         9        10        18     9        0.000000        0.098011         3
         7         9        10        18     9      180.000000       -0.263646         4
         7        11         8        12     9        0.000000       -0.146173         1
         7        11         8        12     9      180.000000       17.382422         2
         7        11         8        12     9        0.000000       -1.580793         3
         7        11         8        12     9      180.000000       -0.402049         4
         7        11         8        27     9        0.000000        0.187089         1
         7        11         8        27     9      180.000000       13.771882         2
         7        11         8        27     9        0.000000       -0.647741         3
         7        11         8        27     9      180.000000        0.097519         4
         7        13         3        14     9        0.000000        0.297307         1
         7        13         3        14     9      180.000000       14.985473         2
         7        13         3        14     9        0.000000        0.124417         3
         7        13         3        14     9      180.000000       -0.748895         4
         7        13        17        15     9        0.000000        0.084176         1
         7        13        17        15     9      180.000000       21.814735         2
         7        13        17        15     9        0.000000        0.748056         3
         7        13        17        15     9      180.000000       -0.835369         4
         8        11         7         9     9        0.000000       -0.098619         1
         8        11         7         9     9      180.000000       17.534362         2
         8        11         7         9     9        0.000000       -1.476565         3
         8        11         7         9     9      180.000000       -0.398274         4
         8        11         7        13     9        0.000000        0.022048         1
         8        11         7        13     9      180.000000       13.293082         2
         8        11         7        13     9        0.000000       -0.240434         3
         8        11         7        13     9      180.000000       -0.263678         4
         8        12        10         9     9        0.000000       -0.091986         1
         8        12        10         9     9      180.000000       13.997009         2
         8        12        10         9     9        0.000000       -0.877784         3
         8        12        10         9     9      180.000000       -0.090945         4
         8        12        10        18     9        0.000000        0.333678         1
         8        12        10        18     9      180.000000       15.415492         2
         8        12        10        18     9        0.000000        0.052206         3
         8        12        10        18     9      180.000000       -0.072282         4
         9         7        11        19     9        0.000000        0.298543         1
         9         7        11        19     9      180.000000       18.924993         2
         9         7        11        19     9        0.000000        0.292500         3
         9         7        11        19     9      180.000000       -0.810591         4
         9         7        13        17     9        0.000000       -2.185126         1
         9         7        13        17     9      180.000000        5.086334         2
         9         7        13        17     9        0.000000       -0.421572         3
         9         7        13        17     9      180.000000        0.438229         4
         9        10        12        20     9        0.000000        0.094534         1
         9        10        12        20     9      180.000000       14.818397         2
         9        10        12        20     9        0.000000       -0.065468         3
         9        10        12        20     9      180.000000       -0.263053         4
         9        10        18        16     9        0.000000       -1.393501         1
         9        10        18        16     9      180.000000        4.709946         2
         9        10        18        16     9        0.000000       -1.151886         3
         9        10        18        16     9      180.000000        0.548802         4
        10         9         7        11     9        0.000000       -0.233939         1
        10         9         7        11     9      180.000000       17.711458         2
        10         9         7        11     9        0.000000       -1.642047         3
        10         9         7        11     9      180.000000       -0.351726         4
        10         9         7        13     9        0.000000        0.003993         1
        10         9         7        13     9      180.000000       15.524504         2
        10         9         7        13     9        0.000000       -0.180086         3
        10         9         7        13     9      180.000000       -0.358665         4
        10        12         8        11     9        0.000000       -0.278984         1
        10        12         8        11     9      180.000000       17.716254         2
        10        12         8        11     9        0.000000       -1.461383         3
        10        12         8        11     9      180.000000       -0.415959         4
        10        12         8        27     9        0.000000        0.160086         1
        10        12         8        27     9      180.000000       13.524140         2
        10        12         8        27     9        0.000000       -0.492360         3
        10        12         8        27     9      180.000000        0.121120         4
        10        18        16        29     9        0.000000       -0.035373         1
        10        18        16        29     9      180.000000        0.005513         2
        10        18        16        29     9        0.000000        0.522930         3
        10        18        16        29     9      180.000000       -0.026902         4
        10        18        16        30     9        0.000000       -0.035373         1
        10        18        16        30     9      180.000000        0.005513         2
        10        18        16        30     9        0.000000        0.522930         3
        10        18        16        30     9      180.000000       -0.026902         4
        10        18        16        31     9        0.000000       -0.035373         1
        10        18        16        31     9      180.000000        0.005513         2
        10        18        16        31     9        0.000000        0.522930         3
        10        18        16        31     9      180.000000       -0.026902         4
        11         7         9        28     9        0.000000        0.008262         1
        11         7         9        28     9      180.000000       13.422347         2
        11         7         9        28     9        0.000000       -0.692861         3
        11         7         9        28     9      180.000000        0.220793         4
        11         7        13        17     9        0.000000        1.217180         1
        11         7        13        17     9      180.000000        3.135486         2
        11         7        13        17     9        0.000000        0.435130         3
        11         7        13        17     9      180.000000        0.035476         4
        11         8        12        20     9        0.000000        0.271047         1
        11         8        12        20     9      180.000000       18.760299         2
        11         8        12        20     9        0.000000        0.275045         3
        11         8        12        20     9      180.000000       -0.665679         4
        12         8        11        19     9        0.000000        0.344077         1
        12         8        11        19     9      180.000000       19.457400         2
        12         8        11        19     9        0.000000        0.328713         3
        12         8        11        19     9      180.000000       -0.753218         4
        12        10         9        28     9        0.000000        0.192952         1
        12        10         9        28     9      180.000000       12.549842         2
        12        10         9        28     9        0.000000       -0.427659         3
        12        10         9        28     9      180.000000        0.163219         4
        12        10        18        16     9        0.000000        3.202602         1
        12        10        18        16     9      180.000000        2.617255         2
        12        10        18        16     9        0.000000        0.770248         3
        12        10        18        16     9      180.000000        0.230797         4
        13         3         4        21     9        0.000000        1.297006         1
        13         3         4        21     9      180.000000        5.130267         2
        13         3         4        21     9        0.000000        0.451998         3
        13         3         4        21     9      180.000000        0.005428         4
        13         7         9        28     9        0.000000       -0.065552         1
        13         7         9        28     9      180.000000       12.723659         2
        13         7         9        28     9        0.000000       -0.306813         3
        13         7         9        28     9      180.000000        0.225646         4
        13         7        11        19     9        0.000000        0.176111         1
        13         7        11        19     9      180.000000       15.798392         2
        13         7        11        19     9        0.000000        0.319614         3
        13         7        11        19     9      180.000000       -0.759617         4
        14         1        15        17     9        0.000000        0.178625         1
        14         1        15        17     9      180.000000       20.470319         2
        14         1        15        17     9        0.000000        0.728063         3
        14         1        15        17     9      180.000000       -0.600012         4
        14         2         5        23     9        0.000000        0.871806         1
        14         2         5        23     9      180.000000        6.650848         2
        14         2         5        23     9        0.000000        0.142840         3
        14         2         5        23     9      180.000000        0.043751         4
        14         3         4        21     9        0.000000        1.386863         1
        14         3         4        21     9      180.000000       18.331481         2
        14         3         4        21     9        0.000000        0.487119         3
        14         3         4        21     9      180.000000       -0.608010         4
        14         3        13        17     9        0.000000       -0.366010         1
        14         3        13        17     9      180.000000       14.489955         2
        14         3        13        17     9        0.000000       -1.011506         3
        14         3        13        17     9      180.000000       -0.244382         4
        17        15         6        24     9        0.000000       -0.026469         1
        17        15         6        24     9      180.000000        0.012279         2
        17        15         6        24     9        0.000000        0.044611         3
        17        15         6        24     9      180.000000       -0.010860         4
        17        15         6        25     9        0.000000       -0.026469         1
        17        15         6        25     9      180.000000        0.012280         2
        17        15         6        25     9        0.000000        0.044612         3
        17        15         6        25     9      180.000000       -0.010860         4
        17        15         6        26     9        0.000000       -0.026469         1
        17        15         6        26     9      180.000000        0.012280         2
        17        15         6        26     9        0.000000        0.044612         3
        17        15         6        26     9      180.000000       -0.010860         4
        18        10         9        28     9        0.000000        0.094766         1
        18        10         9        28     9      180.000000       13.325383         2
        18        10         9        28     9        0.000000       -0.103308         3
        18        10         9        28     9      180.000000        0.289726         4
        18        10        12        20     9        0.000000       -0.195078         1
        18        10        12        20     9      180.000000       17.539455         2
        18        10        12        20     9        0.000000       -0.084371         3
        18        10        12        20     9      180.000000       -0.427696         4
        19        11         8        27     9        0.000000        0.121926         1
        19        11         8        27     9      180.000000       14.246097         2
        19        11         8        27     9        0.000000       -0.128840         3
        19        11         8        27     9      180.000000        0.173256         4
        20        12         8        27     9        0.000000        0.140764         1
        20        12         8        27     9      180.000000       13.892992         2
        20        12         8        27     9        0.000000       -0.188330         3
        20        12         8        27     9      180.000000        0.163077         4
        21         4         5        23     9        0.000000        0.346722         1
        21         4         5        23     9      180.000000       12.046374         2
        21         4         5        23     9        0.000000        0.453492         3
        21         4         5        23     9      180.000000        0.187474         4
        22         2         5        23     9        0.000000       -1.179967         1
        22         2         5        23     9      180.000000        0.071661         2
        22         2         5        23     9        0.000000       -0.054259         3
        22         2         5        23     9      180.000000       -0.124809         4

[ dihedrals ] ; impropers
;       ai        aj        ak        al funct           phase               k        pn
        13         3         7        17     4      180.000000       10.221996         2
        13         7        17         3     4      180.000000       10.221996         2
        13        17         3         7     4      180.000000       10.221996         2
        15         1         6        17     4      180.000000       27.893333         2
        15         6        17         1     4      180.000000       27.893333         2
        15        17         1         6     4      180.000000       27.893333         2

[ pairs ]
;       ai        aj funct
         1         4     1
         1         5     1
         1        13     1
         1        22     1
         1        24     1
         1        25     1
         1        26     1
         2        13     1
         2        15     1
         2        21     1
         3         9     1
         3        11     1
         3        15     1
         3        22     1
         3        23     1
         4         7     1
         4        17     1
         4        22     1
         5        13     1
         6        13     1
         6        14     1
         7        12     1
         7        14     1
         7        15     1
         7        18     1
         7        27     1
         8         9     1
         8        13     1
         8        18     1
         9        16     1
         9        17     1
         9        19     1
         9        20     1
        10        11     1
        10        13     1
        10        27     1
        10        29     1
        10        30     1
        10        31     1
        11        17     1
        11        20     1
        11        28     1
        12        16     1
        12        19     1
        12        28     1
        13        19     1
        13        21     1
        13        28     1
        14        17     1
        14        21     1
        14        23     1
        17        24     1
        17        25     1
        17        26     1
        18        20     1
        18        28     1
        19        27     1
        20        27     1
        21        23     1
        22        23     1
