; ITP file created by ByteFF-ML, 2025-12-06 08:16:24.445355

[ atomtypes ]
;name           bonded.type        at.num        mass        charge   ptype           sigma         epsilon
 n0bf                                   7      0.0000       0.00000       A     3.38504e-01     3.92971e-01
 c1bf                                   6      0.0000       0.00000       A     3.31542e-01     4.11388e-01
 c2bf                                   6      0.0000       0.00000       A     3.31489e-01     4.11119e-01
 n3bf                                   7      0.0000       0.00000       A     3.20543e-01     8.56047e-01
 c4bf                                   6      0.0000       0.00000       A     3.31589e-01     4.11403e-01
 c5bf                                   6      0.0000       0.00000       A     3.31455e-01     4.12855e-01
 c6bf                                   6      0.0000       0.00000       A     3.31473e-01     4.14533e-01
 c7bf                                   6      0.0000       0.00000       A     3.31456e-01     4.11644e-01
 c8bf                                   6      0.0000       0.00000       A     3.48192e-01     6.71885e-01
 c9bf                                   6      0.0000       0.00000       A     3.39816e-01     4.51116e-01
 c10bf                                  6      0.0000       0.00000       A     3.31649e-01     4.09676e-01
 c11bf                                  6      0.0000       0.00000       A     3.31712e-01     4.14364e-01
 c12bf                                  6      0.0000       0.00000       A     3.31391e-01     4.13545e-01
 c13bf                                  6      0.0000       0.00000       A     3.31433e-01     4.13971e-01
 c14bf                                  6      0.0000       0.00000       A     3.31503e-01     4.12081e-01
 c15bf                                  6      0.0000       0.00000       A     3.31528e-01     4.12206e-01
 n16bf                                  7      0.0000       0.00000       A     3.27163e-01     4.60345e-01
 o17bf                                  8      0.0000       0.00000       A     3.15742e-01     3.03491e-01
 cl18bf                                17      0.0000       0.00000       A     3.46633e-01     1.10664e+00
 cl19bf                                17      0.0000       0.00000       A     3.46637e-01     1.10463e+00
 n20bf                                  7      0.0000       0.00000       A     3.38397e-01     3.94068e-01
 c21bf                                  6      0.0000       0.00000       A     3.39751e-01     4.50009e-01
 h22bf                                  1      0.0000       0.00000       A     1.10900e-01     4.12009e-02
 h23bf                                  1      0.0000       0.00000       A     2.54018e-01     6.71004e-02
 h24bf                                  1      0.0000       0.00000       A     2.59926e-01     8.74742e-02
 h25bf                                  1      0.0000       0.00000       A     2.59926e-01     8.74742e-02
 h26bf                                  1      0.0000       0.00000       A     2.59926e-01     8.74742e-02
 h27bf                                  1      0.0000       0.00000       A     2.62483e-01     6.78888e-02
 h28bf                                  1      0.0000       0.00000       A     2.62578e-01     6.76574e-02
 h29bf                                  1      0.0000       0.00000       A     2.42080e-01     8.75859e-02
 h30bf                                  1      0.0000       0.00000       A     2.42080e-01     8.75859e-02
 h31bf                                  1      0.0000       0.00000       A     2.42080e-01     8.75859e-02

[ moleculetype ]
;name             nrexcl
 cmpd_13               3

[ atoms ]
;       nr            type      resi   res      atom      cgnr      charge          mass ; qtot
         1            n0bf         1   UNL        n0         1    -0.18802       14.0070 ; qtot   -0.188
         2            c1bf         1   UNL        c1         2     0.13250       12.0110 ; qtot   -0.056
         3            c2bf         1   UNL        c2         3     0.16041       12.0110 ; qtot    0.105
         4            n3bf         1   UNL        n3         4    -0.32534       14.0070 ; qtot   -0.220
         5            c4bf         1   UNL        c4         5    -0.09786       12.0110 ; qtot   -0.318
         6            c5bf         1   UNL        c5         6    -0.15422       12.0110 ; qtot   -0.473
         7            c6bf         1   UNL        c6         7    -0.02958       12.0110 ; qtot   -0.502
         8            c7bf         1   UNL        c7         8     0.22903       12.0110 ; qtot   -0.273
         9            c8bf         1   UNL        c8         9     0.31673       12.0110 ; qtot    0.044
        10            c9bf         1   UNL        c9        10    -0.13074       12.0110 ; qtot   -0.087
        11           c10bf         1   UNL       c10        11    -0.11247       12.0110 ; qtot   -0.200
        12           c11bf         1   UNL       c11        12    -0.13030       12.0110 ; qtot   -0.330
        13           c12bf         1   UNL       c12        13     0.14342       12.0110 ; qtot   -0.186
        14           c13bf         1   UNL       c13        14    -0.07181       12.0110 ; qtot   -0.258
        15           c14bf         1   UNL       c14        15     0.09426       12.0110 ; qtot   -0.164
        16           c15bf         1   UNL       c15        16     0.13792       12.0110 ; qtot   -0.026
        17           n16bf         1   UNL       n16        17    -0.44757       14.0070 ; qtot   -0.474
        18           o17bf         1   UNL       o17        18    -0.33499       15.9990 ; qtot   -0.809
        19          cl18bf         1   UNL      cl18        19    -0.18967       35.4530 ; qtot   -0.998
        20          cl19bf         1   UNL      cl19        20    -0.17905       35.4530 ; qtot   -1.177
        21           n20bf         1   UNL       n20        21    -0.18967       14.0070 ; qtot   -1.367
        22           c21bf         1   UNL       c21        22     0.14319       12.0110 ; qtot   -1.224
        23           h22bf         1   UNL       h22        23     0.37606        1.0080 ; qtot   -0.848
        24           h23bf         1   UNL       h23        24     0.23348        1.0080 ; qtot   -0.614
        25           h24bf         1   UNL       h24        25     0.06224        1.0080 ; qtot   -0.552
        26           h25bf         1   UNL       h25        26     0.06224        1.0080 ; qtot   -0.490
        27           h26bf         1   UNL       h26        27     0.06224        1.0080 ; qtot   -0.428
        28           h27bf         1   UNL       h27        28     0.14174        1.0080 ; qtot   -0.286
        29           h28bf         1   UNL       h28        29     0.14803        1.0080 ; qtot   -0.138
        30           h29bf         1   UNL       h29        30     0.04594        1.0080 ; qtot   -0.092
        31           h30bf         1   UNL       h30        31     0.04594        1.0080 ; qtot   -0.046
        32           h31bf         1   UNL       h31        32     0.04592        1.0080 ; qtot   -0.000

[ bonds ]
;       ai        aj funct               r               k
         1         2     1        0.133428   327235.149854
         1         3     1        0.134015   299831.022412
         2         4     1        0.137790   269069.480127
         2         6     1        0.141824   237692.391357
         3        10     1        0.150625   207364.188281
         3        21     1        0.134857   267835.041797
         4         5     1        0.137528   301357.426514
         4        23     1        0.101179   427640.628564
         5         7     1        0.138479   350426.599121
         5        24     1        0.108056   341676.436279
         6         7     1        0.144572   229270.380371
         6         8     1        0.140680   278791.049072
         7         9     1        0.142166   294467.948535
         8        11     1        0.148770   210325.777930
         8        21     1        0.133551   315131.530420
         9        17     1        0.116609  1095175.075000
        10        25     1        0.109288   308620.257031
        10        26     1        0.109288   308620.257031
        10        27     1        0.109288   308620.257031
        11        12     1        0.140506   284727.175684
        11        13     1        0.140094   274651.279346
        12        16     1        0.139804   291626.383301
        12        28     1        0.108308   326151.329395
        13        14     1        0.139646   304043.700586
        13        19     1        0.175568   148953.502759
        14        15     1        0.139329   312695.213574
        14        29     1        0.108352   327775.412939
        15        16     1        0.140817   261167.762207
        15        20     1        0.174803   157838.424927
        16        18     1        0.136021   283997.657080
        18        22     1        0.142958   203003.407642
        22        30     1        0.109350   300422.410791
        22        31     1        0.109350   300422.410791
        22        32     1        0.109350   300422.436328

[ angles ]
;       ai        aj        ak funct           theta             cth
         1         2         4     1      125.866379      560.882642
         1         2         6     1      126.077065      704.710451
         1         3        10     1      117.531937      412.953637
         1         3        21     1      125.757912      655.004383
         2         1         3     1      113.616638      742.330444
         2         4         5     1      109.321884      457.998001
         2         4        23     1      124.011452      420.189194
         2         6         7     1      106.181335      245.441069
         2         6         8     1      115.359291      838.565763
         3        10        25     1      110.264771      499.738854
         3        10        26     1      110.264771      499.738854
         3        10        27     1      110.264771      499.738854
         3        21         8     1      119.419724      768.403960
         4         2         6     1      107.882385      167.360000
         4         5         7     1      109.311523      277.351714
         4         5        24     1      121.705002      449.778308
         5         4        23     1      126.622360      402.832131
         5         7         6     1      106.705734      379.923971
         5         7         9     1      124.434166      456.299369
         6         7         9     1      128.801270      400.447667
         6         8        11     1      122.035873      394.246810
         6         8        21     1      119.618484      789.164161
         7         5        24     1      129.152313      346.261369
         7         6         8     1      138.569244      397.256359
         7         9        17     1      178.212189      167.360000
         8        11        12     1      118.309937      488.369318
         8        11        13     1      123.174034      502.095641
        10         3        21     1      116.710106      471.083504
        11         8        21     1      117.553177      542.133360
        11        12        16     1      121.961220      715.901898
        11        12        28     1      118.303810      389.559570
        11        13        14     1      121.115135      621.926357
        11        13        19     1      121.010269      343.751103
        12        11        13     1      118.203476      590.204862
        12        16        15     1      118.294655      564.207190
        12        16        18     1      123.748703      430.877336
        13        14        15     1      119.878151      648.483354
        13        14        29     1      120.210045      392.979787
        14        13        19     1      117.640564      384.755848
        14        15        16     1      120.656082      653.339363
        14        15        20     1      119.281372      385.784451
        15        14        29     1      119.825150      404.303579
        15        16        18     1      117.576111      412.751415
        16        12        28     1      119.738876      419.326391
        16        15        20     1      119.904556      326.307119
        16        18        22     1      117.902969      538.599790
        18        22        30     1      109.314163      446.706034
        18        22        31     1      109.314163      446.706034
        18        22        32     1      109.314163      446.706034
        25        10        26     1      108.747475      354.430371
        25        10        27     1      108.747475      354.430371
        26        10        27     1      108.747475      354.430371
        30        22        31     1      109.703636      343.615341
        30        22        32     1      109.703636      343.615373
        31        22        32     1      109.703636      343.615341

[ dihedrals ] ; propers for gromacs 4.5 or higher, use funct 9
;       ai        aj        ak        al funct           phase               k        pn
         1         2         4         5     9        0.000000        0.890170         1
         1         2         4         5     9      180.000000        6.171226         2
         1         2         4         5     9        0.000000        0.516158         3
         1         2         4         5     9      180.000000       -0.050877         4
         1         2         4        23     9        0.000000       -1.654268         1
         1         2         4        23     9      180.000000        2.643037         2
         1         2         4        23     9        0.000000        0.201606         3
         1         2         4        23     9      180.000000       -0.172932         4
         1         2         6         7     9        0.000000        0.061795         1
         1         2         6         7     9      180.000000       12.107551         2
         1         2         6         7     9        0.000000       -1.401868         3
         1         2         6         7     9      180.000000       -0.051961         4
         1         2         6         8     9        0.000000       -0.125989         1
         1         2         6         8     9      180.000000       11.255997         2
         1         2         6         8     9        0.000000       -0.910448         3
         1         2         6         8     9      180.000000       -0.048044         4
         1         3        10        25     9        0.000000       -0.056495         1
         1         3        10        25     9      180.000000        0.028563         2
         1         3        10        25     9        0.000000       -0.028614         3
         1         3        10        25     9      180.000000       -0.013945         4
         1         3        10        26     9        0.000000       -0.056495         1
         1         3        10        26     9      180.000000        0.028563         2
         1         3        10        26     9        0.000000       -0.028614         3
         1         3        10        26     9      180.000000       -0.013945         4
         1         3        10        27     9        0.000000       -0.056495         1
         1         3        10        27     9      180.000000        0.028563         2
         1         3        10        27     9        0.000000       -0.028614         3
         1         3        10        27     9      180.000000       -0.013945         4
         1         3        21         8     9        0.000000        0.156450         1
         1         3        21         8     9      180.000000       15.285808         2
         1         3        21         8     9        0.000000        0.462033         3
         1         3        21         8     9      180.000000       -0.656803         4
         2         1         3        10     9        0.000000        0.272917         1
         2         1         3        10     9      180.000000       22.843762         2
         2         1         3        10     9        0.000000        0.816082         3
         2         1         3        10     9      180.000000       -0.962509         4
         2         1         3        21     9        0.000000        0.261313         1
         2         1         3        21     9      180.000000       20.354940         2
         2         1         3        21     9        0.000000        0.709675         3
         2         1         3        21     9      180.000000       -0.555770         4
         2         4         5         7     9        0.000000        0.248600         1
         2         4         5         7     9      180.000000       23.343821         2
         2         4         5         7     9        0.000000       -5.012964         3
         2         4         5         7     9      180.000000       -0.736652         4
         2         4         5        24     9        0.000000        0.740961         1
         2         4         5        24     9      180.000000       10.982914         2
         2         4         5        24     9        0.000000        0.015404         3
         2         4         5        24     9      180.000000       -0.197228         4
         2         6         7         5     9        0.000000       -0.303314         1
         2         6         7         5     9      180.000000       23.533384         2
         2         6         7         5     9        0.000000      -10.359440         3
         2         6         7         5     9      180.000000        0.364035         4
         2         6         7         9     9        0.000000        0.867988         1
         2         6         7         9     9      180.000000       11.976352         2
         2         6         7         9     9        0.000000        0.716439         3
         2         6         7         9     9      180.000000       -0.563452         4
         2         6         8        11     9        0.000000        0.356695         1
         2         6         8        11     9      180.000000       15.050468         2
         2         6         8        11     9        0.000000        0.201717         3
         2         6         8        11     9      180.000000       -0.738641         4
         2         6         8        21     9        0.000000       -0.402508         1
         2         6         8        21     9      180.000000       14.583538         2
         2         6         8        21     9        0.000000       -1.065014         3
         2         6         8        21     9      180.000000       -0.273348         4
         3         1         2         4     9        0.000000        0.021247         1
         3         1         2         4     9      180.000000       20.445834         2
         3         1         2         4     9        0.000000        0.359157         3
         3         1         2         4     9      180.000000       -0.791684         4
         3         1         2         6     9        0.000000       -0.479861         1
         3         1         2         6     9      180.000000       17.384563         2
         3         1         2         6     9        0.000000       -0.927237         3
         3         1         2         6     9      180.000000       -0.368860         4
         3        21         8         6     9        0.000000       -0.458650         1
         3        21         8         6     9      180.000000       22.178533         2
         3        21         8         6     9        0.000000       -1.169261         3
         3        21         8         6     9      180.000000       -0.446030         4
         3        21         8        11     9        0.000000        0.253736         1
         3        21         8        11     9      180.000000       21.335126         2
         3        21         8        11     9        0.000000        0.646605         3
         3        21         8        11     9      180.000000       -0.878945         4
         4         2         6         7     9        0.000000       -0.000879         1
         4         2         6         7     9      180.000000       17.230692         2
         4         2         6         7     9        0.000000       -6.021580         3
         4         2         6         7     9      180.000000       -0.015829         4
         4         2         6         8     9        0.000000        0.010602         1
         4         2         6         8     9      180.000000       10.853605         2
         4         2         6         8     9        0.000000       -2.596506         3
         4         2         6         8     9      180.000000        0.102185         4
         4         5         7         6     9        0.000000       -0.360387         1
         4         5         7         6     9      180.000000       31.318733         2
         4         5         7         6     9        0.000000       -6.171895         3
         4         5         7         6     9      180.000000       -0.589290         4
         4         5         7         9     9        0.000000        0.548224         1
         4         5         7         9     9      180.000000       17.432636         2
         4         5         7         9     9        0.000000        0.740728         3
         4         5         7         9     9      180.000000       -1.037499         4
         5         4         2         6     9        0.000000        0.159015         1
         5         4         2         6     9      180.000000       21.272767         2
         5         4         2         6     9        0.000000       -5.963552         3
         5         4         2         6     9      180.000000       -0.955203         4
         5         7         6         8     9        0.000000        0.590787         1
         5         7         6         8     9      180.000000        3.832816         2
         5         7         6         8     9        0.000000       -1.071124         3
         5         7         6         8     9      180.000000        0.341371         4
         5         7         9        17     9        0.000000        0.000000         1
         5         7         9        17     9      180.000000        0.000000         2
         5         7         9        17     9        0.000000        0.000000         3
         5         7         9        17     9      180.000000        0.000000         4
         6         2         4        23     9        0.000000        0.691541         1
         6         2         4        23     9      180.000000        3.461223         2
         6         2         4        23     9        0.000000        0.428596         3
         6         2         4        23     9      180.000000        0.163337         4
         6         7         5        24     9        0.000000        0.346404         1
         6         7         5        24     9      180.000000       16.103819         2
         6         7         5        24     9        0.000000       -0.060721         3
         6         7         5        24     9      180.000000       -0.499364         4
         6         7         9        17     9        0.000000        0.000000         1
         6         7         9        17     9      180.000000        0.000000         2
         6         7         9        17     9        0.000000        0.000000         3
         6         7         9        17     9      180.000000        0.000000         4
         6         8        11        12     9        0.000000        0.564964         1
         6         8        11        12     9      180.000000        4.199486         2
         6         8        11        12     9        0.000000       -0.124533         3
         6         8        11        12     9      180.000000        0.382182         4
         6         8        11        13     9        0.000000       -0.934580         1
         6         8        11        13     9      180.000000        2.783831         2
         6         8        11        13     9        0.000000        0.038954         3
         6         8        11        13     9      180.000000        0.219313         4
         7         5         4        23     9        0.000000        0.608319         1
         7         5         4        23     9      180.000000        4.456566         2
         7         5         4        23     9        0.000000        0.570608         3
         7         5         4        23     9      180.000000        0.118744         4
         7         6         8        11     9        0.000000        0.363371         1
         7         6         8        11     9      180.000000       11.692871         2
         7         6         8        11     9        0.000000        0.423695         3
         7         6         8        11     9      180.000000       -0.412548         4
         7         6         8        21     9        0.000000       -0.144721         1
         7         6         8        21     9      180.000000        8.940093         2
         7         6         8        21     9        0.000000       -0.090751         3
         7         6         8        21     9      180.000000       -0.228295         4
         8         6         7         9     9        0.000000        0.165349         1
         8         6         7         9     9      180.000000        6.091729         2
         8         6         7         9     9        0.000000        0.536120         3
         8         6         7         9     9      180.000000       -0.192590         4
         8        11        12        16     9        0.000000       -0.003794         1
         8        11        12        16     9      180.000000       15.649853         2
         8        11        12        16     9        0.000000       -0.141947         3
         8        11        12        16     9      180.000000       -0.356761         4
         8        11        12        28     9        0.000000       -0.060422         1
         8        11        12        28     9      180.000000       12.707064         2
         8        11        12        28     9        0.000000       -0.276843         3
         8        11        12        28     9      180.000000        0.239070         4
         8        11        13        14     9        0.000000        0.009082         1
         8        11        13        14     9      180.000000       13.281633         2
         8        11        13        14     9        0.000000       -0.199220         3
         8        11        13        14     9      180.000000       -0.240992         4
         8        11        13        19     9        0.000000        0.178944         1
         8        11        13        19     9      180.000000       16.050073         2
         8        11        13        19     9        0.000000        0.371272         3
         8        11        13        19     9      180.000000       -0.762483         4
         8        21         3        10     9        0.000000        0.175386         1
         8        21         3        10     9      180.000000       17.595094         2
         8        21         3        10     9        0.000000        0.278117         3
         8        21         3        10     9      180.000000       -0.927337         4
         9         7         5        24     9        0.000000        0.040603         1
         9         7         5        24     9      180.000000       11.137268         2
         9         7         5        24     9        0.000000        0.091821         3
         9         7         5        24     9      180.000000        0.034186         4
        11        12        16        15     9        0.000000       -0.060943         1
        11        12        16        15     9      180.000000       15.343432         2
        11        12        16        15     9        0.000000       -0.951053         3
        11        12        16        15     9      180.000000       -0.297026         4
        11        12        16        18     9        0.000000        0.328931         1
        11        12        16        18     9      180.000000       17.653283         2
        11        12        16        18     9        0.000000        0.107279         3
        11        12        16        18     9      180.000000       -0.263880         4
        11        13        14        15     9        0.000000       -0.158523         1
        11        13        14        15     9      180.000000       17.421869         2
        11        13        14        15     9        0.000000       -1.615375         3
        11        13        14        15     9      180.000000       -0.405921         4
        11        13        14        29     9        0.000000        0.185219         1
        11        13        14        29     9      180.000000       13.799837         2
        11        13        14        29     9        0.000000       -0.646002         3
        11        13        14        29     9      180.000000        0.086588         4
        12        11         8        21     9        0.000000       -2.229401         1
        12        11         8        21     9      180.000000        5.193965         2
        12        11         8        21     9        0.000000       -0.352751         3
        12        11         8        21     9      180.000000        0.439961         4
        12        11        13        14     9        0.000000       -0.087124         1
        12        11        13        14     9      180.000000       17.586613         2
        12        11        13        14     9        0.000000       -1.504463         3
        12        11        13        14     9      180.000000       -0.393555         4
        12        11        13        19     9        0.000000        0.305555         1
        12        11        13        19     9      180.000000       19.052469         2
        12        11        13        19     9        0.000000        0.288052         3
        12        11        13        19     9      180.000000       -0.815796         4
        12        16        15        14     9        0.000000       -0.091985         1
        12        16        15        14     9      180.000000       13.997011         2
        12        16        15        14     9        0.000000       -0.877784         3
        12        16        15        14     9      180.000000       -0.090945         4
        12        16        15        20     9        0.000000        0.094535         1
        12        16        15        20     9      180.000000       14.818397         2
        12        16        15        20     9        0.000000       -0.065468         3
        12        16        15        20     9      180.000000       -0.263053         4
        12        16        18        22     9        0.000000       -1.393501         1
        12        16        18        22     9      180.000000        4.709946         2
        12        16        18        22     9        0.000000       -1.151886         3
        12        16        18        22     9      180.000000        0.548803         4
        13        11         8        21     9        0.000000        1.313994         1
        13        11         8        21     9      180.000000        3.209062         2
        13        11         8        21     9        0.000000        0.485522         3
        13        11         8        21     9      180.000000        0.017619         4
        13        11        12        16     9        0.000000       -0.237845         1
        13        11        12        16     9      180.000000       17.737705         2
        13        11        12        16     9        0.000000       -1.641715         3
        13        11        12        16     9      180.000000       -0.357085         4
        13        11        12        28     9        0.000000        0.025609         1
        13        11        12        28     9      180.000000       13.441009         2
        13        11        12        28     9        0.000000       -0.721142         3
        13        11        12        28     9      180.000000        0.223905         4
        13        14        15        16     9        0.000000       -0.278984         1
        13        14        15        16     9      180.000000       17.716258         2
        13        14        15        16     9        0.000000       -1.461383         3
        13        14        15        16     9      180.000000       -0.415960         4
        13        14        15        20     9        0.000000        0.271048         1
        13        14        15        20     9      180.000000       18.760305         2
        13        14        15        20     9        0.000000        0.275045         3
        13        14        15        20     9      180.000000       -0.665679         4
        14        15        16        18     9        0.000000        0.333678         1
        14        15        16        18     9      180.000000       15.415492         2
        14        15        16        18     9        0.000000        0.052206         3
        14        15        16        18     9      180.000000       -0.072282         4
        15        14        13        19     9        0.000000        0.344077         1
        15        14        13        19     9      180.000000       19.457398         2
        15        14        13        19     9        0.000000        0.328713         3
        15        14        13        19     9      180.000000       -0.753219         4
        15        16        12        28     9        0.000000        0.192952         1
        15        16        12        28     9      180.000000       12.549842         2
        15        16        12        28     9        0.000000       -0.427659         3
        15        16        12        28     9      180.000000        0.163219         4
        15        16        18        22     9        0.000000        3.202601         1
        15        16        18        22     9      180.000000        2.617255         2
        15        16        18        22     9        0.000000        0.770248         3
        15        16        18        22     9      180.000000        0.230797         4
        16        15        14        29     9        0.000000        0.160085         1
        16        15        14        29     9      180.000000       13.524140         2
        16        15        14        29     9        0.000000       -0.492360         3
        16        15        14        29     9      180.000000        0.121120         4
        16        18        22        30     9        0.000000       -0.035373         1
        16        18        22        30     9      180.000000        0.005513         2
        16        18        22        30     9        0.000000        0.522930         3
        16        18        22        30     9      180.000000       -0.026902         4
        16        18        22        31     9        0.000000       -0.035373         1
        16        18        22        31     9      180.000000        0.005513         2
        16        18        22        31     9        0.000000        0.522930         3
        16        18        22        31     9      180.000000       -0.026902         4
        16        18        22        32     9        0.000000       -0.035373         1
        16        18        22        32     9      180.000000        0.005513         2
        16        18        22        32     9        0.000000        0.522930         3
        16        18        22        32     9      180.000000       -0.026902         4
        18        16        12        28     9        0.000000        0.094767         1
        18        16        12        28     9      180.000000       13.325385         2
        18        16        12        28     9        0.000000       -0.103308         3
        18        16        12        28     9      180.000000        0.289726         4
        18        16        15        20     9        0.000000       -0.195078         1
        18        16        15        20     9      180.000000       17.539455         2
        18        16        15        20     9        0.000000       -0.084371         3
        18        16        15        20     9      180.000000       -0.427696         4
        19        13        14        29     9        0.000000        0.121926         1
        19        13        14        29     9      180.000000       14.246094         2
        19        13        14        29     9        0.000000       -0.128840         3
        19        13        14        29     9      180.000000        0.173257         4
        20        15        14        29     9        0.000000        0.140764         1
        20        15        14        29     9      180.000000       13.892994         2
        20        15        14        29     9        0.000000       -0.188329         3
        20        15        14        29     9      180.000000        0.163077         4
        21         3        10        25     9        0.000000       -0.015649         1
        21         3        10        25     9      180.000000        0.017245         2
        21         3        10        25     9        0.000000        0.039590         3
        21         3        10        25     9      180.000000       -0.011187         4
        21         3        10        26     9        0.000000       -0.015649         1
        21         3        10        26     9      180.000000        0.017245         2
        21         3        10        26     9        0.000000        0.039590         3
        21         3        10        26     9      180.000000       -0.011187         4
        21         3        10        27     9        0.000000       -0.015649         1
        21         3        10        27     9      180.000000        0.017245         2
        21         3        10        27     9        0.000000        0.039590         3
        21         3        10        27     9      180.000000       -0.011187         4
        23         4         5        24     9        0.000000       -1.549744         1
        23         4         5        24     9      180.000000        1.119717         2
        23         4         5        24     9        0.000000        0.059516         3
        23         4         5        24     9      180.000000       -0.076124         4

[ dihedrals ] ; impropers
;       ai        aj        ak        al funct           phase               k        pn
         3         1        10        21     4      180.000000       27.893333         2
         3        10        21         1     4      180.000000       27.893333         2
         3        21         1        10     4      180.000000       27.893333         2
         8         6        11        21     4      180.000000        8.914602         2
         8        11        21         6     4      180.000000        8.914602         2
         8        21         6        11     4      180.000000        8.914602         2

[ pairs ]
;       ai        aj funct
         1         5     1
         1         7     1
         1         8     1
         1        23     1
         1        25     1
         1        26     1
         1        27     1
         2         9     1
         2        10     1
         2        11     1
         2        21     1
         2        24     1
         3         4     1
         3         6     1
         3        11     1
         4         8     1
         4         9     1
         5         8     1
         5        17     1
         6        12     1
         6        13     1
         6        17     1
         6        23     1
         6        24     1
         7        11     1
         7        21     1
         7        23     1
         8         9     1
         8        10     1
         8        14     1
         8        16     1
         8        19     1
         8        28     1
         9        24     1
        11        15     1
        11        18     1
        11        29     1
        12        14     1
        12        19     1
        12        20     1
        12        21     1
        12        22     1
        13        16     1
        13        20     1
        13        21     1
        13        28     1
        14        18     1
        15        19     1
        15        22     1
        15        28     1
        16        29     1
        16        30     1
        16        31     1
        16        32     1
        18        20     1
        18        28     1
        19        29     1
        20        29     1
        21        25     1
        21        26     1
        21        27     1
        23        24     1
