; ITP file created by ByteFF-ML, 2025-12-06 08:16:14.047187

[ atomtypes ]
;name           bonded.type        at.num        mass        charge   ptype           sigma         epsilon
 n0bf                                   7      0.0000       0.00000       A     3.38179e-01     3.90887e-01
 n1bf                                   7      0.0000       0.00000       A     3.36925e-01     4.66844e-01
 c2bf                                   6      0.0000       0.00000       A     3.31487e-01     4.13194e-01
 c3bf                                   6      0.0000       0.00000       A     3.39828e-01     4.50719e-01
 c4bf                                   6      0.0000       0.00000       A     3.31593e-01     4.12065e-01
 c5bf                                   6      0.0000       0.00000       A     3.31443e-01     4.12854e-01
 c6bf                                   6      0.0000       0.00000       A     3.31424e-01     4.14127e-01
 c7bf                                   6      0.0000       0.00000       A     3.31480e-01     4.12113e-01
 c8bf                                   6      0.0000       0.00000       A     3.31693e-01     4.13537e-01
 c9bf                                   6      0.0000       0.00000       A     3.31528e-01     4.12981e-01
 c10bf                                  6      0.0000       0.00000       A     3.31503e-01     4.12081e-01
 c11bf                                  6      0.0000       0.00000       A     3.31309e-01     4.13491e-01
 c12bf                                  6      0.0000       0.00000       A     3.31410e-01     4.12177e-01
 c13bf                                  6      0.0000       0.00000       A     3.39751e-01     4.50009e-01
 c14bf                                  6      0.0000       0.00000       A     3.31510e-01     4.10329e-01
 o15bf                                  8      0.0000       0.00000       A     3.15742e-01     3.03491e-01
 cl16bf                                17      0.0000       0.00000       A     3.46902e-01     1.10825e+00
 cl17bf                                17      0.0000       0.00000       A     3.46637e-01     1.10463e+00
 h18bf                                  1      0.0000       0.00000       A     1.10524e-01     4.06024e-02
 h19bf                                  1      0.0000       0.00000       A     1.10524e-01     4.06024e-02
 h20bf                                  1      0.0000       0.00000       A     2.59989e-01     8.71151e-02
 h21bf                                  1      0.0000       0.00000       A     2.59989e-01     8.71151e-02
 h22bf                                  1      0.0000       0.00000       A     2.59989e-01     8.71151e-02
 h23bf                                  1      0.0000       0.00000       A     2.62578e-01     6.76574e-02
 h24bf                                  1      0.0000       0.00000       A     2.62533e-01     6.78649e-02
 h25bf                                  1      0.0000       0.00000       A     2.62604e-01     6.77946e-02
 h26bf                                  1      0.0000       0.00000       A     2.42080e-01     8.75859e-02
 h27bf                                  1      0.0000       0.00000       A     2.42080e-01     8.75859e-02
 h28bf                                  1      0.0000       0.00000       A     2.42080e-01     8.75859e-02
 h29bf                                  1      0.0000       0.00000       A     2.62381e-01     6.81442e-02

[ moleculetype ]
;name             nrexcl
 cmpd_8                3

[ atoms ]
;       nr            type      resi   res      atom      cgnr      charge          mass ; qtot
         1            n0bf         1   UNL        n0         1    -0.74269       14.0070 ; qtot   -0.743
         2            n1bf         1   UNL        n1         2    -1.02359       14.0070 ; qtot   -1.766
         3            c2bf         1   UNL        c2         3     0.39279       12.0110 ; qtot   -1.373
         4            c3bf         1   UNL        c3         4    -0.14504       12.0110 ; qtot   -1.519
         5            c4bf         1   UNL        c4         5     0.00161       12.0110 ; qtot   -1.517
         6            c5bf         1   UNL        c5         6     0.12146       12.0110 ; qtot   -1.395
         7            c6bf         1   UNL        c6         7    -0.06597       12.0110 ; qtot   -1.461
         8            c7bf         1   UNL        c7         8     0.14394       12.0110 ; qtot   -1.317
         9            c8bf         1   UNL        c8         9    -0.15724       12.0110 ; qtot   -1.475
        10            c9bf         1   UNL        c9        10    -0.18022       12.0110 ; qtot   -1.655
        11           c10bf         1   UNL       c10        11     0.08848       12.0110 ; qtot   -1.566
        12           c11bf         1   UNL       c11        12     0.02160       12.0110 ; qtot   -1.545
        13           c12bf         1   UNL       c12        13     0.56323       12.0110 ; qtot   -0.982
        14           c13bf         1   UNL       c13        14     0.14319       12.0110 ; qtot   -0.838
        15           c14bf         1   UNL       c14        15    -0.20181       12.0110 ; qtot   -1.040
        16           o15bf         1   UNL       o15        16    -0.33479       15.9990 ; qtot   -1.375
        17          cl16bf         1   UNL      cl16        17    -0.19747       35.4530 ; qtot   -1.573
        18          cl17bf         1   UNL      cl17        18    -0.17905       35.4530 ; qtot   -1.752
        19           h18bf         1   UNL       h18        19     0.45614        1.0080 ; qtot   -1.295
        20           h19bf         1   UNL       h19        20     0.45614        1.0080 ; qtot   -0.839
        21           h20bf         1   UNL       h20        21     0.05418        1.0080 ; qtot   -0.785
        22           h21bf         1   UNL       h21        22     0.05418        1.0080 ; qtot   -0.731
        23           h22bf         1   UNL       h22        23     0.05418        1.0080 ; qtot   -0.677
        24           h23bf         1   UNL       h23        24     0.14701        1.0080 ; qtot   -0.530
        25           h24bf         1   UNL       h24        25     0.13301        1.0080 ; qtot   -0.397
        26           h25bf         1   UNL       h25        26     0.12985        1.0080 ; qtot   -0.267
        27           h26bf         1   UNL       h26        27     0.04594        1.0080 ; qtot   -0.221
        28           h27bf         1   UNL       h27        28     0.04594        1.0080 ; qtot   -0.175
        29           h28bf         1   UNL       h28        29     0.04594        1.0080 ; qtot   -0.129
        30           h29bf         1   UNL       h29        30     0.12906        1.0080 ; qtot   -0.000

[ bonds ]
;       ai        aj funct               r               k
         1         3     1        0.134450   310133.586133
         1        13     1        0.134043   299246.171533
         2        13     1        0.138906   297131.622266
         2        19     1        0.101257   420740.910205
         2        20     1        0.101257   420740.910205
         3         4     1        0.150895   205975.544116
         3        10     1        0.139765   288915.670215
         4        21     1        0.109367   304171.615967
         4        22     1        0.109367   304171.615967
         4        23     1        0.109367   304171.615967
         5         6     1        0.140365   265040.822363
         5         9     1        0.140733   279587.066309
         5        12     1        0.148611   215374.234619
         6         7     1        0.139670   303389.184473
         6        17     1        0.175815   146704.130322
         7        11     1        0.139305   313502.799121
         7        24     1        0.108348   327883.511523
         8         9     1        0.139874   290136.701563
         8        11     1        0.140828   260749.285596
         8        16     1        0.135987   284511.336035
         9        25     1        0.108323   324752.764062
        10        12     1        0.140245   291212.605518
        10        26     1        0.108490   321559.603906
        11        18     1        0.174803   157838.412158
        12        15     1        0.139481   309638.523730
        13        15     1        0.141008   266057.505762
        14        16     1        0.142958   203003.394873
        14        27     1        0.109350   300422.436328
        14        28     1        0.109350   300422.436328
        14        29     1        0.109350   300422.436328
        15        30     1        0.108495   320790.298486

[ angles ]
;       ai        aj        ak funct           theta             cth
         1         3         4     1      115.968361      455.134525
         1         3        10     1      122.451820      694.431637
         1        13         2     1      115.909889      649.940310
         1        13        15     1      122.839867      655.524191
         2        13        15     1      121.031540      537.724314
         3         1        13     1      118.514137      818.150887
         3         4        21     1      110.665405      489.258264
         3         4        22     1      110.665405      489.258264
         3         4        23     1      110.665405      489.258264
         3        10        12     1      119.152100      739.648536
         3        10        26     1      120.243271      413.562410
         4         3        10     1      121.395218      461.830292
         5         6         7     1      121.388145      621.066777
         5         6        17     1      121.348801      331.601791
         5         9         8     1      122.450356      720.250357
         5         9        25     1      118.317429      415.414137
         5        12        10     1      120.924911      467.578248
         5        12        15     1      120.595444      427.062188
         6         5         9     1      117.385109      537.744489
         6         5        12     1      123.985901      455.357911
         6         7        11     1      120.007141      644.892134
         6         7        24     1      120.104942      406.256179
         7         6        17     1      117.266556      379.335852
         7        11         8     1      120.621742      648.572734
         7        11        18     1      119.297867      383.823935
         8         9        25     1      119.070641      438.331203
         8        11        18     1      119.918228      324.867943
         8        16        14     1      117.958939      538.682339
         9         5        12     1      118.484665      448.975741
         9         8        11     1      118.281693      542.762275
         9         8        16     1      123.861954      439.696768
        10        12        15     1      118.361740      668.069870
        11         7        24     1      119.808754      410.635570
        11         8        16     1      117.515503      413.786913
        12        10        26     1      120.673141      438.995583
        12        15        13     1      118.812538      824.507585
        12        15        30     1      120.605064      430.473179
        13         2        19     1      114.593857      479.384086
        13         2        20     1      114.593857      479.384086
        13        15        30     1      120.235794      431.075185
        16        14        27     1      109.314163      446.706034
        16        14        28     1      109.314163      446.706034
        16        14        29     1      109.314163      446.706034
        19         2        20     1      113.907066      354.447704
        21         4        22     1      108.276901      360.075062
        21         4        23     1      108.276901      360.075062
        22         4        23     1      108.276901      360.075062
        27        14        28     1      109.703636      343.615405
        27        14        29     1      109.703636      343.615405
        28        14        29     1      109.703636      343.615405

[ dihedrals ] ; propers for gromacs 4.5 or higher, use funct 9
;       ai        aj        ak        al funct           phase               k        pn
         1         3         4        21     9        0.000000       -0.026383         1
         1         3         4        21     9      180.000000       -0.000124         2
         1         3         4        21     9        0.000000        0.096661         3
         1         3         4        21     9      180.000000       -0.012801         4
         1         3         4        22     9        0.000000       -0.026383         1
         1         3         4        22     9      180.000000       -0.000124         2
         1         3         4        22     9        0.000000        0.096661         3
         1         3         4        22     9      180.000000       -0.012801         4
         1         3         4        23     9        0.000000       -0.026383         1
         1         3         4        23     9      180.000000       -0.000124         2
         1         3         4        23     9        0.000000        0.096661         3
         1         3         4        23     9      180.000000       -0.012801         4
         1         3        10        12     9        0.000000       -0.011895         1
         1         3        10        12     9      180.000000       18.074420         2
         1         3        10        12     9        0.000000       -0.708413         3
         1         3        10        12     9      180.000000       -0.752313         4
         1         3        10        26     9        0.000000       -0.091977         1
         1         3        10        26     9      180.000000       14.012850         2
         1         3        10        26     9        0.000000       -0.154717         3
         1         3        10        26     9      180.000000       -0.154290         4
         1        13         2        19     9        0.000000       11.358613         1
         1        13         2        19     9      180.000000        7.294413         2
         1        13         2        19     9        0.000000        0.146820         3
         1        13         2        19     9      180.000000        0.271369         4
         1        13         2        20     9        0.000000       11.358613         1
         1        13         2        20     9      180.000000        7.294413         2
         1        13         2        20     9        0.000000        0.146820         3
         1        13         2        20     9      180.000000        0.271369         4
         1        13        15        12     9        0.000000       -0.138585         1
         1        13        15        12     9      180.000000       12.593215         2
         1        13        15        12     9        0.000000       -0.057480         3
         1        13        15        12     9      180.000000       -0.490780         4
         1        13        15        30     9        0.000000       -0.203098         1
         1        13        15        30     9      180.000000       11.406228         2
         1        13        15        30     9        0.000000       -0.060578         3
         1        13        15        30     9      180.000000       -0.241886         4
         2        13         1         3     9        0.000000        0.382712         1
         2        13         1         3     9      180.000000       28.342253         2
         2        13         1         3     9        0.000000        1.100793         3
         2        13         1         3     9      180.000000       -0.972622         4
         2        13        15        12     9        0.000000        0.326719         1
         2        13        15        12     9      180.000000       16.990274         2
         2        13        15        12     9        0.000000        0.274372         3
         2        13        15        12     9      180.000000       -0.808330         4
         2        13        15        30     9        0.000000       -0.314438         1
         2        13        15        30     9      180.000000       14.051127         2
         2        13        15        30     9        0.000000        0.013766         3
         2        13        15        30     9      180.000000        0.048141         4
         3         1        13        15     9        0.000000        0.688671         1
         3         1        13        15     9      180.000000       19.970127         2
         3         1        13        15     9        0.000000        0.075504         3
         3         1        13        15     9      180.000000       -0.238148         4
         3        10        12         5     9        0.000000        0.517030         1
         3        10        12         5     9      180.000000       16.163388         2
         3        10        12         5     9        0.000000        0.040615         3
         3        10        12         5     9      180.000000       -0.383623         4
         3        10        12        15     9        0.000000       -0.235399         1
         3        10        12        15     9      180.000000       17.811982         2
         3        10        12        15     9        0.000000       -1.719331         3
         3        10        12        15     9      180.000000       -0.349083         4
         4         3         1        13     9        0.000000        0.910735         1
         4         3         1        13     9      180.000000       19.564973         2
         4         3         1        13     9        0.000000        0.682377         3
         4         3         1        13     9      180.000000       -0.591385         4
         4         3        10        12     9        0.000000        0.332660         1
         4         3        10        12     9      180.000000       15.291276         2
         4         3        10        12     9        0.000000       -0.018814         3
         4         3        10        12     9      180.000000       -0.303869         4
         4         3        10        26     9        0.000000       -0.227901         1
         4         3        10        26     9      180.000000       12.331617         2
         4         3        10        26     9        0.000000       -0.501093         3
         4         3        10        26     9      180.000000        0.225034         4
         5         6         7        11     9        0.000000       -0.090317         1
         5         6         7        11     9      180.000000       17.790936         2
         5         6         7        11     9        0.000000       -1.483880         3
         5         6         7        11     9      180.000000       -0.462326         4
         5         6         7        24     9        0.000000        0.127979         1
         5         6         7        24     9      180.000000       13.513817         2
         5         6         7        24     9        0.000000       -0.448568         3
         5         6         7        24     9      180.000000        0.110242         4
         5         9         8        11     9        0.000000       -0.041235         1
         5         9         8        11     9      180.000000       15.750400         2
         5         9         8        11     9        0.000000       -0.955051         3
         5         9         8        11     9      180.000000       -0.346328         4
         5         9         8        16     9        0.000000        0.484495         1
         5         9         8        16     9      180.000000       17.751894         2
         5         9         8        16     9        0.000000        0.425431         3
         5         9         8        16     9      180.000000       -0.397408         4
         5        12        10        26     9        0.000000       -0.023539         1
         5        12        10        26     9      180.000000       12.871836         2
         5        12        10        26     9        0.000000       -0.218674         3
         5        12        10        26     9      180.000000        0.212727         4
         5        12        15        13     9        0.000000        0.430062         1
         5        12        15        13     9      180.000000       17.136310         2
         5        12        15        13     9        0.000000       -0.101299         3
         5        12        15        13     9      180.000000       -0.463512         4
         5        12        15        30     9        0.000000       -0.028416         1
         5        12        15        30     9      180.000000       12.910704         2
         5        12        15        30     9        0.000000       -0.233044         3
         5        12        15        30     9      180.000000        0.146507         4
         6         5         9         8     9        0.000000       -0.226130         1
         6         5         9         8     9      180.000000       18.082959         2
         6         5         9         8     9        0.000000       -1.657837         3
         6         5         9         8     9      180.000000       -0.387764         4
         6         5         9        25     9        0.000000        0.087030         1
         6         5         9        25     9      180.000000       13.551852         2
         6         5         9        25     9        0.000000       -0.508958         3
         6         5         9        25     9      180.000000        0.183075         4
         6         5        12        10     9        0.000000        0.283881         1
         6         5        12        10     9      180.000000        2.000842         2
         6         5        12        10     9        0.000000       -0.208603         3
         6         5        12        10     9      180.000000        0.406258         4
         6         5        12        15     9        0.000000        0.099095         1
         6         5        12        15     9      180.000000        2.151933         2
         6         5        12        15     9        0.000000       -0.269118         3
         6         5        12        15     9      180.000000        0.427872         4
         6         7        11         8     9        0.000000       -0.246762         1
         6         7        11         8     9      180.000000       17.926422         2
         6         7        11         8     9        0.000000       -1.470979         3
         6         7        11         8     9      180.000000       -0.430815         4
         6         7        11        18     9        0.000000        0.296676         1
         6         7        11        18     9      180.000000       19.156507         2
         6         7        11        18     9        0.000000        0.272652         3
         6         7        11        18     9      180.000000       -0.714142         4
         7         6         5         9     9        0.000000       -0.120511         1
         7         6         5         9     9      180.000000       17.287556         2
         7         6         5         9     9        0.000000       -1.316782         3
         7         6         5         9     9      180.000000       -0.425168         4
         7         6         5        12     9        0.000000        0.202911         1
         7         6         5        12     9      180.000000       13.831391         2
         7         6         5        12     9        0.000000       -0.140099         3
         7         6         5        12     9      180.000000       -0.342519         4
         7        11         8         9     9        0.000000       -0.028417         1
         7        11         8         9     9      180.000000       13.937813         2
         7        11         8         9     9        0.000000       -0.825973         3
         7        11         8         9     9      180.000000       -0.082052         4
         7        11         8        16     9        0.000000        0.338145         1
         7        11         8        16     9      180.000000       15.413071         2
         7        11         8        16     9        0.000000        0.097119         3
         7        11         8        16     9      180.000000       -0.069000         4
         8         9         5        12     9        0.000000        0.256808         1
         8         9         5        12     9      180.000000       15.956248         2
         8         9         5        12     9        0.000000       -0.117331         3
         8         9         5        12     9      180.000000       -0.358465         4
         8        11         7        24     9        0.000000        0.166525         1
         8        11         7        24     9      180.000000       13.531524         2
         8        11         7        24     9        0.000000       -0.480805         3
         8        11         7        24     9      180.000000        0.118705         4
         8        16        14        27     9        0.000000       -0.037513         1
         8        16        14        27     9      180.000000        0.008335         2
         8        16        14        27     9        0.000000        0.509189         3
         8        16        14        27     9      180.000000       -0.025194         4
         8        16        14        28     9        0.000000       -0.037513         1
         8        16        14        28     9      180.000000        0.008335         2
         8        16        14        28     9        0.000000        0.509189         3
         8        16        14        28     9      180.000000       -0.025194         4
         8        16        14        29     9        0.000000       -0.037513         1
         8        16        14        29     9      180.000000        0.008335         2
         8        16        14        29     9        0.000000        0.509189         3
         8        16        14        29     9      180.000000       -0.025194         4
         9         5         6        17     9        0.000000        0.312864         1
         9         5         6        17     9      180.000000       16.799992         2
         9         5         6        17     9        0.000000        0.291310         3
         9         5         6        17     9      180.000000       -0.602989         4
         9         5        12        10     9        0.000000       -0.432425         1
         9         5        12        10     9      180.000000        3.394307         2
         9         5        12        10     9        0.000000       -0.178269         3
         9         5        12        10     9      180.000000        0.378443         4
         9         5        12        15     9        0.000000       -0.289578         1
         9         5        12        15     9      180.000000        3.486381         2
         9         5        12        15     9        0.000000       -0.172359         3
         9         5        12        15     9      180.000000        0.384479         4
         9         8        11        18     9        0.000000        0.079001         1
         9         8        11        18     9      180.000000       14.594225         2
         9         8        11        18     9        0.000000       -0.048661         3
         9         8        11        18     9      180.000000       -0.251716         4
         9         8        16        14     9        0.000000       -1.010962         1
         9         8        16        14     9      180.000000        4.666696         2
         9         8        16        14     9        0.000000       -1.172352         3
         9         8        16        14     9      180.000000        0.589044         4
        10         3         1        13     9        0.000000        0.418681         1
        10         3         1        13     9      180.000000       20.408488         2
        10         3         1        13     9        0.000000       -0.336365         3
        10         3         1        13     9      180.000000       -0.330987         4
        10         3         4        21     9        0.000000       -0.037163         1
        10         3         4        21     9      180.000000       -0.012540         2
        10         3         4        21     9        0.000000       -0.081298         3
        10         3         4        21     9      180.000000        0.001839         4
        10         3         4        22     9        0.000000       -0.037163         1
        10         3         4        22     9      180.000000       -0.012540         2
        10         3         4        22     9        0.000000       -0.081298         3
        10         3         4        22     9      180.000000        0.001839         4
        10         3         4        23     9        0.000000       -0.037163         1
        10         3         4        23     9      180.000000       -0.012540         2
        10         3         4        23     9        0.000000       -0.081297         3
        10         3         4        23     9      180.000000        0.001839         4
        10        12        15        13     9        0.000000       -0.215833         1
        10        12        15        13     9      180.000000       18.356653         2
        10        12        15        13     9        0.000000       -1.899668         3
        10        12        15        13     9      180.000000       -0.389168         4
        10        12        15        30     9        0.000000       -0.092248         1
        10        12        15        30     9      180.000000       14.661243         2
        10        12        15        30     9        0.000000       -0.531981         3
        10        12        15        30     9      180.000000        0.078775         4
        11         7         6        17     9        0.000000        0.344755         1
        11         7         6        17     9      180.000000       19.163228         2
        11         7         6        17     9        0.000000        0.324361         3
        11         7         6        17     9      180.000000       -0.740655         4
        11         8         9        25     9        0.000000        0.257474         1
        11         8         9        25     9      180.000000       12.360913         2
        11         8         9        25     9        0.000000       -0.464697         3
        11         8         9        25     9      180.000000        0.176662         4
        11         8        16        14     9        0.000000        3.107727         1
        11         8        16        14     9      180.000000        2.592205         2
        11         8        16        14     9        0.000000        0.743887         3
        11         8        16        14     9      180.000000        0.222242         4
        12         5         6        17     9        0.000000        0.140499         1
        12         5         6        17     9      180.000000       15.633122         2
        12         5         6        17     9        0.000000        0.326713         3
        12         5         6        17     9      180.000000       -0.631405         4
        12         5         9        25     9        0.000000       -0.116630         1
        12         5         9        25     9      180.000000       13.387955         2
        12         5         9        25     9        0.000000       -0.259571         3
        12         5         9        25     9      180.000000        0.169696         4
        15        12        10        26     9        0.000000       -0.105635         1
        15        12        10        26     9      180.000000       14.129775         2
        15        12        10        26     9        0.000000       -0.558407         3
        15        12        10        26     9      180.000000        0.066031         4
        15        13         2        19     9        0.000000       -0.753595         1
        15        13         2        19     9      180.000000        5.903541         2
        15        13         2        19     9        0.000000        0.294827         3
        15        13         2        19     9      180.000000        0.291153         4
        15        13         2        20     9        0.000000       -0.753595         1
        15        13         2        20     9      180.000000        5.903541         2
        15        13         2        20     9        0.000000        0.294827         3
        15        13         2        20     9      180.000000        0.291153         4
        16         8         9        25     9        0.000000        0.145389         1
        16         8         9        25     9      180.000000       13.323682         2
        16         8         9        25     9        0.000000       -0.033497         3
        16         8         9        25     9      180.000000        0.298594         4
        16         8        11        18     9        0.000000       -0.221357         1
        16         8        11        18     9      180.000000       17.610137         2
        16         8        11        18     9        0.000000       -0.067581         3
        16         8        11        18     9      180.000000       -0.437774         4
        17         6         7        24     9        0.000000        0.195056         1
        17         6         7        24     9      180.000000       13.896686         2
        17         6         7        24     9        0.000000       -0.160613         3
        17         6         7        24     9      180.000000        0.221556         4
        18        11         7        24     9        0.000000        0.138612         1
        18        11         7        24     9      180.000000       13.829773         2
        18        11         7        24     9        0.000000       -0.196696         3
        18        11         7        24     9      180.000000        0.179208         4

[ dihedrals ] ; impropers
;       ai        aj        ak        al funct           phase               k        pn
         3         1         4        10     4      180.000000       10.581666         2
         3         4        10         1     4      180.000000       10.581666         2
         3        10         1         4     4      180.000000       10.581666         2

[ pairs ]
;       ai        aj funct
         1        12     1
         1        19     1
         1        20     1
         1        21     1
         1        22     1
         1        23     1
         1        26     1
         1        30     1
         2         3     1
         2        12     1
         2        30     1
         3         5     1
         3        15     1
         4        12     1
         4        13     1
         4        26     1
         5        11     1
         5        13     1
         5        16     1
         5        24     1
         5        26     1
         5        30     1
         6         8     1
         6        10     1
         6        15     1
         6        18     1
         6        25     1
         7         9     1
         7        12     1
         7        16     1
         8        12     1
         8        24     1
         8        27     1
         8        28     1
         8        29     1
         9        10     1
         9        14     1
         9        15     1
         9        17     1
         9        18     1
        10        13     1
        10        21     1
        10        22     1
        10        23     1
        10        30     1
        11        14     1
        11        17     1
        11        25     1
        12        17     1
        12        25     1
        15        19     1
        15        20     1
        15        26     1
        16        18     1
        16        25     1
        17        24     1
        18        24     1
