; ITP file created by ByteFF-ML, 2025-12-06 08:15:27.937507

[ atomtypes ]
;name           bonded.type        at.num        mass        charge   ptype           sigma         epsilon
 n0bf                                   7      0.0000       0.00000       A     3.38465e-01     3.92805e-01
 n1bf                                   7      0.0000       0.00000       A     3.20593e-01     8.52548e-01
 c2bf                                   6      0.0000       0.00000       A     3.31536e-01     4.12609e-01
 c3bf                                   6      0.0000       0.00000       A     3.31509e-01     4.12420e-01
 c4bf                                   6      0.0000       0.00000       A     3.31522e-01     4.12258e-01
 c5bf                                   6      0.0000       0.00000       A     3.39816e-01     4.51116e-01
 c6bf                                   6      0.0000       0.00000       A     3.31649e-01     4.09757e-01
 c7bf                                   6      0.0000       0.00000       A     3.31433e-01     4.13971e-01
 c8bf                                   6      0.0000       0.00000       A     3.31712e-01     4.14364e-01
 c9bf                                   6      0.0000       0.00000       A     3.31528e-01     4.12206e-01
 c10bf                                  6      0.0000       0.00000       A     3.31391e-01     4.13545e-01
 c11bf                                  6      0.0000       0.00000       A     3.31503e-01     4.12081e-01
 c12bf                                  6      0.0000       0.00000       A     3.31209e-01     4.12914e-01
 c13bf                                  6      0.0000       0.00000       A     3.31553e-01     4.11641e-01
 c14bf                                  6      0.0000       0.00000       A     3.31489e-01     4.11120e-01
 c15bf                                  6      0.0000       0.00000       A     3.39751e-01     4.50009e-01
 n16bf                                  7      0.0000       0.00000       A     3.38473e-01     3.93232e-01
 o17bf                                  8      0.0000       0.00000       A     3.15742e-01     3.03491e-01
 cl18bf                                17      0.0000       0.00000       A     3.46633e-01     1.10664e+00
 cl19bf                                17      0.0000       0.00000       A     3.46637e-01     1.10463e+00
 h20bf                                  1      0.0000       0.00000       A     1.10938e-01     4.12807e-02
 h21bf                                  1      0.0000       0.00000       A     2.62825e-01     6.67253e-02
 h22bf                                  1      0.0000       0.00000       A     2.54010e-01     6.77005e-02
 h23bf                                  1      0.0000       0.00000       A     2.59926e-01     8.74742e-02
 h24bf                                  1      0.0000       0.00000       A     2.59926e-01     8.74742e-02
 h25bf                                  1      0.0000       0.00000       A     2.59926e-01     8.74742e-02
 h26bf                                  1      0.0000       0.00000       A     2.62578e-01     6.76574e-02
 h27bf                                  1      0.0000       0.00000       A     2.62483e-01     6.78888e-02
 h28bf                                  1      0.0000       0.00000       A     2.42080e-01     8.75859e-02
 h29bf                                  1      0.0000       0.00000       A     2.42080e-01     8.75859e-02
 h30bf                                  1      0.0000       0.00000       A     2.42080e-01     8.75859e-02

[ moleculetype ]
;name             nrexcl
 cmpd_9                3

[ atoms ]
;       nr            type      resi   res      atom      cgnr      charge          mass ; qtot
         1            n0bf         1   UNL        n0         1    -0.19515       14.0070 ; qtot   -0.195
         2            n1bf         1   UNL        n1         2    -0.33871       14.0070 ; qtot   -0.534
         3            c2bf         1   UNL        c2         3    -0.17564       12.0110 ; qtot   -0.710
         4            c3bf         1   UNL        c3         4    -0.21463       12.0110 ; qtot   -0.924
         5            c4bf         1   UNL        c4         5    -0.15330       12.0110 ; qtot   -1.077
         6            c5bf         1   UNL        c5         6    -0.13074       12.0110 ; qtot   -1.208
         7            c6bf         1   UNL        c6         7    -0.10534       12.0110 ; qtot   -1.314
         8            c7bf         1   UNL        c7         8    -0.07181       12.0110 ; qtot   -1.385
         9            c8bf         1   UNL        c8         9    -0.13626       12.0110 ; qtot   -1.522
        10            c9bf         1   UNL        c9        10     0.13792       12.0110 ; qtot   -1.384
        11           c10bf         1   UNL       c10        11     0.13773       12.0110 ; qtot   -1.246
        12           c11bf         1   UNL       c11        12     0.09426       12.0110 ; qtot   -1.152
        13           c12bf         1   UNL       c12        13     0.21561       12.0110 ; qtot   -0.936
        14           c13bf         1   UNL       c13        14     0.13407       12.0110 ; qtot   -0.802
        15           c14bf         1   UNL       c14        15     0.14751       12.0110 ; qtot   -0.654
        16           c15bf         1   UNL       c15        16     0.14319       12.0110 ; qtot   -0.511
        17           n16bf         1   UNL       n16        17    -0.19365       14.0070 ; qtot   -0.705
        18           o17bf         1   UNL       o17        18    -0.33499       15.9990 ; qtot   -1.040
        19          cl18bf         1   UNL      cl18        19    -0.18967       35.4530 ; qtot   -1.230
        20          cl19bf         1   UNL      cl19        20    -0.17905       35.4530 ; qtot   -1.409
        21           h20bf         1   UNL       h20        21     0.36319        1.0080 ; qtot   -1.045
        22           h21bf         1   UNL       h21        22     0.21355        1.0080 ; qtot   -0.832
        23           h22bf         1   UNL       h22        23     0.21761        1.0080 ; qtot   -0.614
        24           h23bf         1   UNL       h23        24     0.06224        1.0080 ; qtot   -0.552
        25           h24bf         1   UNL       h24        25     0.06224        1.0080 ; qtot   -0.490
        26           h25bf         1   UNL       h25        26     0.06224        1.0080 ; qtot   -0.428
        27           h26bf         1   UNL       h26        27     0.14803        1.0080 ; qtot   -0.280
        28           h27bf         1   UNL       h27        28     0.14174        1.0080 ; qtot   -0.138
        29           h28bf         1   UNL       h28        29     0.04594        1.0080 ; qtot   -0.092
        30           h29bf         1   UNL       h29        30     0.04594        1.0080 ; qtot   -0.046
        31           h30bf         1   UNL       h30        31     0.04593        1.0080 ; qtot    0.000

[ bonds ]
;       ai        aj funct               r               k
         1        14     1        0.133583   324471.702637
         1        15     1        0.134057   299391.477686
         2         5     1        0.138965   276448.453418
         2        14     1        0.137336   279006.403516
         2        21     1        0.101056   430118.621973
         3         4     1        0.143881   246984.655957
         3        13     1        0.140627   279890.855762
         3        14     1        0.142295   231826.925928
         4         5     1        0.137593   379967.212207
         4        22     1        0.108053   338395.760449
         5        23     1        0.108133   337131.954443
         6        15     1        0.150625   207364.162744
         6        24     1        0.109288   308620.257031
         6        25     1        0.109288   308620.257031
         6        26     1        0.109288   308620.257031
         7         9     1        0.140518   283830.337939
         7        11     1        0.140142   273394.240674
         7        13     1        0.148896   207630.144507
         8        11     1        0.139646   304043.700586
         8        12     1        0.139329   312695.213574
         8        27     1        0.108352   327775.412939
         9        10     1        0.139804   291626.383301
         9        28     1        0.108308   326151.329395
        10        12     1        0.140817   261167.762207
        10        18     1        0.136021   283997.631543
        11        19     1        0.175568   148953.502759
        12        20     1        0.174803   157838.412158
        13        17     1        0.133805   309758.829053
        15        17     1        0.134892   267147.710498
        16        18     1        0.142958   203003.407642
        16        29     1        0.109350   300422.436328
        16        30     1        0.109350   300422.436328
        16        31     1        0.109350   300422.436328

[ angles ]
;       ai        aj        ak funct           theta             cth
         1        14         2     1      126.119034      552.803658
         1        14         3     1      126.233986      693.896060
         1        15         6     1      117.505394      405.815089
         1        15        17     1      125.999100      639.844533
         2         5         4     1      109.702858      274.742140
         2         5        23     1      120.564682      465.655304
         2        14         3     1      107.668480      167.360000
         3         4         5     1      106.589073      436.057730
         3         4        22     1      127.894432      384.472258
         3        13         7     1      121.525711      411.516153
         3        13        17     1      120.238358      790.634524
         4         3        13     1      138.120575      413.821388
         4         3        14     1      106.935059      272.076864
         4         5        23     1      129.976486      347.719314
         5         2        14     1      109.099472      438.326415
         5         2        21     1      126.700699      393.521333
         5         4        22     1      125.819374      391.617893
         6        15        17     1      116.564407      462.262028
         7         9        10     1      122.060692      722.616051
         7         9        28     1      118.156418      391.196658
         7        11         8     1      121.204628      629.890806
         7        11        19     1      120.987473      341.154394
         7        13        17     1      117.368652      535.264133
         8        11        19     1      117.640564      384.755816
         8        12        10     1      120.656090      653.339363
         8        12        20     1      119.281372      385.784419
         9         7        11     1      118.016403      590.667722
         9         7        13     1      118.199013      493.062496
         9        10        12     1      118.294655      564.207063
         9        10        18     1      123.748695      430.877336
        10         9        28     1      119.738892      419.326422
        10        12        20     1      119.904556      326.307150
        10        18        16     1      117.902969      538.599790
        11         7        13     1      123.510010      501.773491
        11         8        12     1      119.878151      648.483418
        11         8        27     1      120.210045      392.979787
        12         8        27     1      119.825157      404.303548
        12        10        18     1      117.576111      412.751447
        13         3        14     1      114.814720      842.767639
        13        17        15     1      119.129013      746.741469
        14         1        15     1      113.606407      752.858819
        14         2        21     1      124.077316      423.096594
        15         6        24     1      110.264771      499.738917
        15         6        25     1      110.264771      499.738917
        15         6        26     1      110.264771      499.738917
        18        16        29     1      109.314163      446.706034
        18        16        30     1      109.314163      446.706034
        18        16        31     1      109.314163      446.706034
        24         6        25     1      108.747475      354.430307
        24         6        26     1      108.747475      354.430307
        25         6        26     1      108.747475      354.430371
        29        16        30     1      109.703636      343.615405
        29        16        31     1      109.703636      343.615405
        30        16        31     1      109.703636      343.615405

[ dihedrals ] ; propers for gromacs 4.5 or higher, use funct 9
;       ai        aj        ak        al funct           phase               k        pn
         1        14         2         5     9        0.000000        0.839502         1
         1        14         2         5     9      180.000000        5.842026         2
         1        14         2         5     9        0.000000        0.406004         3
         1        14         2         5     9      180.000000        0.001387         4
         1        14         2        21     9        0.000000       -1.680827         1
         1        14         2        21     9      180.000000        2.819476         2
         1        14         2        21     9        0.000000        0.117599         3
         1        14         2        21     9      180.000000       -0.158547         4
         1        14         3         4     9        0.000000        0.117230         1
         1        14         3         4     9      180.000000       11.911651         2
         1        14         3         4     9        0.000000       -1.381322         3
         1        14         3         4     9      180.000000       -0.095435         4
         1        14         3        13     9        0.000000       -0.258640         1
         1        14         3        13     9      180.000000       10.870927         2
         1        14         3        13     9        0.000000       -1.150928         3
         1        14         3        13     9      180.000000       -0.129918         4
         1        15         6        24     9        0.000000       -0.055073         1
         1        15         6        24     9      180.000000        0.016695         2
         1        15         6        24     9        0.000000       -0.024766         3
         1        15         6        24     9      180.000000       -0.017610         4
         1        15         6        25     9        0.000000       -0.055073         1
         1        15         6        25     9      180.000000        0.016695         2
         1        15         6        25     9        0.000000       -0.024766         3
         1        15         6        25     9      180.000000       -0.017610         4
         1        15         6        26     9        0.000000       -0.055073         1
         1        15         6        26     9      180.000000        0.016695         2
         1        15         6        26     9        0.000000       -0.024766         3
         1        15         6        26     9      180.000000       -0.017610         4
         1        15        17        13     9        0.000000        0.070741         1
         1        15        17        13     9      180.000000       16.256681         2
         1        15        17        13     9        0.000000        0.470945         3
         1        15        17        13     9      180.000000       -0.685814         4
         2         5         4         3     9        0.000000       -0.181600         1
         2         5         4         3     9      180.000000       33.701323         2
         2         5         4         3     9        0.000000       -5.724979         3
         2         5         4         3     9      180.000000       -0.886728         4
         2         5         4        22     9        0.000000        0.231809         1
         2         5         4        22     9      180.000000       16.327300         2
         2         5         4        22     9        0.000000        0.044947         3
         2         5         4        22     9      180.000000       -0.373920         4
         2        14         1        15     9        0.000000        0.405531         1
         2        14         1        15     9      180.000000       20.406395         2
         2        14         1        15     9        0.000000        0.358078         3
         2        14         1        15     9      180.000000       -0.830786         4
         2        14         3         4     9        0.000000        0.191725         1
         2        14         3         4     9      180.000000       16.952986         2
         2        14         3         4     9        0.000000       -5.274637         3
         2        14         3         4     9      180.000000       -0.177540         4
         2        14         3        13     9        0.000000       -0.056425         1
         2        14         3        13     9      180.000000       11.214577         2
         2        14         3        13     9        0.000000       -2.724706         3
         2        14         3        13     9      180.000000       -0.024479         4
         3         4         5        23     9        0.000000        0.199409         1
         3         4         5        23     9      180.000000       17.751196         2
         3         4         5        23     9        0.000000       -0.298872         3
         3         4         5        23     9      180.000000       -0.465991         4
         3        13         7         9     9        0.000000        0.506575         1
         3        13         7         9     9      180.000000        3.780928         2
         3        13         7         9     9        0.000000       -0.034778         3
         3        13         7         9     9      180.000000        0.316219         4
         3        13         7        11     9        0.000000       -0.371293         1
         3        13         7        11     9      180.000000        2.220895         2
         3        13         7        11     9        0.000000       -0.167391         3
         3        13         7        11     9      180.000000        0.180113         4
         3        13        17        15     9        0.000000       -0.606312         1
         3        13        17        15     9      180.000000       21.526879         2
         3        13        17        15     9        0.000000       -1.337146         3
         3        13        17        15     9      180.000000       -0.293708         4
         3        14         1        15     9        0.000000       -0.274208         1
         3        14         1        15     9      180.000000       17.823302         2
         3        14         1        15     9        0.000000       -1.021482         3
         3        14         1        15     9      180.000000       -0.371956         4
         3        14         2         5     9        0.000000        0.190466         1
         3        14         2         5     9      180.000000       21.977418         2
         3        14         2         5     9        0.000000       -6.033079         3
         3        14         2         5     9      180.000000       -0.891420         4
         3        14         2        21     9        0.000000        0.037442         1
         3        14         2        21     9      180.000000        3.688100         2
         3        14         2        21     9        0.000000        0.274939         3
         3        14         2        21     9      180.000000        0.204887         4
         4         3        13         7     9        0.000000        0.359505         1
         4         3        13         7     9      180.000000       12.335644         2
         4         3        13         7     9        0.000000        0.439692         3
         4         3        13         7     9      180.000000       -0.432853         4
         4         3        13        17     9        0.000000        0.021425         1
         4         3        13        17     9      180.000000       10.131460         2
         4         3        13        17     9        0.000000        0.050353         3
         4         3        13        17     9      180.000000       -0.380837         4
         4         5         2        14     9        0.000000        0.504985         1
         4         5         2        14     9      180.000000       21.256854         2
         4         5         2        14     9        0.000000       -5.236286         3
         4         5         2        14     9      180.000000       -0.645060         4
         4         5         2        21     9        0.000000       -0.008249         1
         4         5         2        21     9      180.000000        3.356612         2
         4         5         2        21     9        0.000000        0.564554         3
         4         5         2        21     9      180.000000        0.121163         4
         5         4         3        13     9        0.000000        0.022511         1
         5         4         3        13     9      180.000000        4.097079         2
         5         4         3        13     9        0.000000       -0.617516         3
         5         4         3        13     9      180.000000        0.036055         4
         5         4         3        14     9        0.000000       -0.074938         1
         5         4         3        14     9      180.000000       25.945917         2
         5         4         3        14     9        0.000000       -9.975179         3
         5         4         3        14     9      180.000000       -0.088472         4
         6        15         1        14     9        0.000000        0.311476         1
         6        15         1        14     9      180.000000       22.836911         2
         6        15         1        14     9        0.000000        0.787150         3
         6        15         1        14     9      180.000000       -0.959180         4
         6        15        17        13     9        0.000000        0.066484         1
         6        15        17        13     9      180.000000       18.327112         2
         6        15        17        13     9        0.000000        0.312483         3
         6        15        17        13     9      180.000000       -0.953101         4
         7         9        10        12     9        0.000000       -0.105774         1
         7         9        10        12     9      180.000000       15.343568         2
         7         9        10        12     9        0.000000       -0.925362         3
         7         9        10        12     9      180.000000       -0.293544         4
         7         9        10        18     9        0.000000        0.321632         1
         7         9        10        18     9      180.000000       17.489133         2
         7         9        10        18     9        0.000000        0.094890         3
         7         9        10        18     9      180.000000       -0.257336         4
         7        11         8        12     9        0.000000       -0.127246         1
         7        11         8        12     9      180.000000       17.358649         2
         7        11         8        12     9        0.000000       -1.585492         3
         7        11         8        12     9      180.000000       -0.397783         4
         7        11         8        27     9        0.000000        0.176717         1
         7        11         8        27     9      180.000000       13.717831         2
         7        11         8        27     9        0.000000       -0.649216         3
         7        11         8        27     9      180.000000        0.105710         4
         7        13         3        14     9        0.000000        0.282424         1
         7        13         3        14     9      180.000000       15.467210         2
         7        13         3        14     9        0.000000        0.128135         3
         7        13         3        14     9      180.000000       -0.793469         4
         7        13        17        15     9        0.000000        0.191099         1
         7        13        17        15     9      180.000000       20.858334         2
         7        13        17        15     9        0.000000        0.806725         3
         7        13        17        15     9      180.000000       -0.739850         4
         8        11         7         9     9        0.000000       -0.096878         1
         8        11         7         9     9      180.000000       17.536714         2
         8        11         7         9     9        0.000000       -1.451171         3
         8        11         7         9     9      180.000000       -0.420979         4
         8        11         7        13     9        0.000000        0.079646         1
         8        11         7        13     9      180.000000       13.350319         2
         8        11         7        13     9        0.000000       -0.250050         3
         8        11         7        13     9      180.000000       -0.248260         4
         8        12        10         9     9        0.000000       -0.091986         1
         8        12        10         9     9      180.000000       13.997009         2
         8        12        10         9     9        0.000000       -0.877784         3
         8        12        10         9     9      180.000000       -0.090945         4
         8        12        10        18     9        0.000000        0.333678         1
         8        12        10        18     9      180.000000       15.415492         2
         8        12        10        18     9        0.000000        0.052206         3
         8        12        10        18     9      180.000000       -0.072282         4
         9         7        11        19     9        0.000000        0.332571         1
         9         7        11        19     9      180.000000       18.801812         2
         9         7        11        19     9        0.000000        0.297781         3
         9         7        11        19     9      180.000000       -0.805822         4
         9         7        13        17     9        0.000000       -2.411363         1
         9         7        13        17     9      180.000000        4.949638         2
         9         7        13        17     9        0.000000       -0.419389         3
         9         7        13        17     9      180.000000        0.390675         4
         9        10        12        20     9        0.000000        0.094534         1
         9        10        12        20     9      180.000000       14.818397         2
         9        10        12        20     9        0.000000       -0.065468         3
         9        10        12        20     9      180.000000       -0.263053         4
         9        10        18        16     9        0.000000       -1.393501         1
         9        10        18        16     9      180.000000        4.709946         2
         9        10        18        16     9        0.000000       -1.151886         3
         9        10        18        16     9      180.000000        0.548802         4
        10         9         7        11     9        0.000000       -0.261634         1
        10         9         7        11     9      180.000000       17.708920         2
        10         9         7        11     9        0.000000       -1.650210         3
        10         9         7        11     9      180.000000       -0.355493         4
        10         9         7        13     9        0.000000        0.016648         1
        10         9         7        13     9      180.000000       15.570595         2
        10         9         7        13     9        0.000000       -0.172099         3
        10         9         7        13     9      180.000000       -0.318190         4
        10        12         8        11     9        0.000000       -0.278984         1
        10        12         8        11     9      180.000000       17.716254         2
        10        12         8        11     9        0.000000       -1.461383         3
        10        12         8        11     9      180.000000       -0.415959         4
        10        12         8        27     9        0.000000        0.160086         1
        10        12         8        27     9      180.000000       13.524140         2
        10        12         8        27     9        0.000000       -0.492360         3
        10        12         8        27     9      180.000000        0.121120         4
        10        18        16        29     9        0.000000       -0.035373         1
        10        18        16        29     9      180.000000        0.005513         2
        10        18        16        29     9        0.000000        0.522930         3
        10        18        16        29     9      180.000000       -0.026902         4
        10        18        16        30     9        0.000000       -0.035373         1
        10        18        16        30     9      180.000000        0.005513         2
        10        18        16        30     9        0.000000        0.522930         3
        10        18        16        30     9      180.000000       -0.026902         4
        10        18        16        31     9        0.000000       -0.035373         1
        10        18        16        31     9      180.000000        0.005513         2
        10        18        16        31     9        0.000000        0.522930         3
        10        18        16        31     9      180.000000       -0.026902         4
        11         7         9        28     9        0.000000        0.005457         1
        11         7         9        28     9      180.000000       13.407179         2
        11         7         9        28     9        0.000000       -0.634784         3
        11         7         9        28     9      180.000000        0.210898         4
        11         7        13        17     9        0.000000        1.163391         1
        11         7        13        17     9      180.000000        2.911622         2
        11         7        13        17     9        0.000000        0.531107         3
        11         7        13        17     9      180.000000       -0.047649         4
        11         8        12        20     9        0.000000        0.271047         1
        11         8        12        20     9      180.000000       18.760299         2
        11         8        12        20     9        0.000000        0.275045         3
        11         8        12        20     9      180.000000       -0.665679         4
        12         8        11        19     9        0.000000        0.344077         1
        12         8        11        19     9      180.000000       19.457400         2
        12         8        11        19     9        0.000000        0.328713         3
        12         8        11        19     9      180.000000       -0.753218         4
        12        10         9        28     9        0.000000        0.192952         1
        12        10         9        28     9      180.000000       12.549842         2
        12        10         9        28     9        0.000000       -0.427659         3
        12        10         9        28     9      180.000000        0.163219         4
        12        10        18        16     9        0.000000        3.202602         1
        12        10        18        16     9      180.000000        2.617255         2
        12        10        18        16     9        0.000000        0.770248         3
        12        10        18        16     9      180.000000        0.230797         4
        13         3         4        22     9        0.000000       -0.567713         1
        13         3         4        22     9      180.000000        3.757330         2
        13         3         4        22     9        0.000000       -0.084472         3
        13         3         4        22     9      180.000000       -0.084430         4
        13         7         9        28     9        0.000000       -0.034316         1
        13         7         9        28     9      180.000000       12.754264         2
        13         7         9        28     9        0.000000       -0.281969         3
        13         7         9        28     9      180.000000        0.231561         4
        13         7        11        19     9        0.000000        0.227005         1
        13         7        11        19     9      180.000000       15.746040         2
        13         7        11        19     9        0.000000        0.360242         3
        13         7        11        19     9      180.000000       -0.703817         4
        14         1        15        17     9        0.000000        0.119571         1
        14         1        15        17     9      180.000000       20.312309         2
        14         1        15        17     9        0.000000        0.497242         3
        14         1        15        17     9      180.000000       -0.558289         4
        14         2         5        23     9        0.000000        1.030129         1
        14         2         5        23     9      180.000000        8.574927         2
        14         2         5        23     9        0.000000        0.052816         3
        14         2         5        23     9      180.000000       -0.051475         4
        14         3         4        22     9        0.000000        0.298228         1
        14         3         4        22     9      180.000000       10.113925         2
        14         3         4        22     9        0.000000       -0.279156         3
        14         3         4        22     9      180.000000       -0.233863         4
        14         3        13        17     9        0.000000       -0.226968         1
        14         3        13        17     9      180.000000       15.663470         2
        14         3        13        17     9        0.000000       -0.891034         3
        14         3        13        17     9      180.000000       -0.356228         4
        17        15         6        24     9        0.000000       -0.027747         1
        17        15         6        24     9      180.000000        0.014178         2
        17        15         6        24     9        0.000000        0.029910         3
        17        15         6        24     9      180.000000       -0.011057         4
        17        15         6        25     9        0.000000       -0.027747         1
        17        15         6        25     9      180.000000        0.014178         2
        17        15         6        25     9        0.000000        0.029911         3
        17        15         6        25     9      180.000000       -0.011057         4
        17        15         6        26     9        0.000000       -0.027747         1
        17        15         6        26     9      180.000000        0.014178         2
        17        15         6        26     9        0.000000        0.029911         3
        17        15         6        26     9      180.000000       -0.011057         4
        18        10         9        28     9        0.000000        0.094766         1
        18        10         9        28     9      180.000000       13.325383         2
        18        10         9        28     9        0.000000       -0.103308         3
        18        10         9        28     9      180.000000        0.289726         4
        18        10        12        20     9        0.000000       -0.195078         1
        18        10        12        20     9      180.000000       17.539455         2
        18        10        12        20     9        0.000000       -0.084371         3
        18        10        12        20     9      180.000000       -0.427696         4
        19        11         8        27     9        0.000000        0.121926         1
        19        11         8        27     9      180.000000       14.246097         2
        19        11         8        27     9        0.000000       -0.128840         3
        19        11         8        27     9      180.000000        0.173256         4
        20        12         8        27     9        0.000000        0.140764         1
        20        12         8        27     9      180.000000       13.892992         2
        20        12         8        27     9        0.000000       -0.188330         3
        20        12         8        27     9      180.000000        0.163077         4
        21         2         5        23     9        0.000000       -1.296618         1
        21         2         5        23     9      180.000000        0.310558         2
        21         2         5        23     9        0.000000       -0.018239         3
        21         2         5        23     9      180.000000       -0.086553         4
        22         4         5        23     9        0.000000        0.074499         1
        22         4         5        23     9      180.000000       11.570051         2
        22         4         5        23     9        0.000000       -0.434652         3
        22         4         5        23     9      180.000000        0.035649         4

[ dihedrals ] ; impropers
;       ai        aj        ak        al funct           phase               k        pn
        13         3         7        17     4      180.000000        5.441084         2
        13         7        17         3     4      180.000000        5.441084         2
        13        17         3         7     4      180.000000        5.441084         2
        15         1         6        17     4      180.000000       27.893333         2
        15         6        17         1     4      180.000000       27.893333         2
        15        17         1         6     4      180.000000       27.893333         2

[ pairs ]
;       ai        aj funct
         1         4     1
         1         5     1
         1        13     1
         1        21     1
         1        24     1
         1        25     1
         1        26     1
         2        13     1
         2        15     1
         2        22     1
         3         9     1
         3        11     1
         3        15     1
         3        21     1
         3        23     1
         4         7     1
         4        17     1
         4        21     1
         5        13     1
         6        13     1
         6        14     1
         7        12     1
         7        14     1
         7        15     1
         7        18     1
         7        27     1
         8         9     1
         8        13     1
         8        18     1
         9        16     1
         9        17     1
         9        19     1
         9        20     1
        10        11     1
        10        13     1
        10        27     1
        10        29     1
        10        30     1
        10        31     1
        11        17     1
        11        20     1
        11        28     1
        12        16     1
        12        19     1
        12        28     1
        13        19     1
        13        22     1
        13        28     1
        14        17     1
        14        22     1
        14        23     1
        17        24     1
        17        25     1
        17        26     1
        18        20     1
        18        28     1
        19        27     1
        20        27     1
        21        23     1
        22        23     1
