; ITP file created by ByteFF-ML, 2025-12-06 08:16:52.845920

[ atomtypes ]
;name           bonded.type        at.num        mass        charge   ptype           sigma         epsilon
 n0bf                                   7      0.0000       0.00000       A     3.38511e-01     3.92193e-01
 n1bf                                   7      0.0000       0.00000       A     3.20663e-01     8.59180e-01
 c2bf                                   6      0.0000       0.00000       A     3.31486e-01     4.11593e-01
 c3bf                                   6      0.0000       0.00000       A     3.31707e-01     4.12309e-01
 c4bf                                   6      0.0000       0.00000       A     3.31466e-01     4.12370e-01
 c5bf                                   6      0.0000       0.00000       A     3.39816e-01     4.51116e-01
 c6bf                                   6      0.0000       0.00000       A     3.31628e-01     4.09708e-01
 c7bf                                   6      0.0000       0.00000       A     3.31433e-01     4.13971e-01
 c8bf                                   6      0.0000       0.00000       A     3.31712e-01     4.14364e-01
 c9bf                                   6      0.0000       0.00000       A     3.31528e-01     4.12206e-01
 c10bf                                  6      0.0000       0.00000       A     3.31391e-01     4.13545e-01
 c11bf                                  6      0.0000       0.00000       A     3.31503e-01     4.12081e-01
 c12bf                                  6      0.0000       0.00000       A     3.31458e-01     4.12937e-01
 c13bf                                  6      0.0000       0.00000       A     3.31711e-01     4.11299e-01
 c14bf                                  6      0.0000       0.00000       A     3.31489e-01     4.11120e-01
 c15bf                                  6      0.0000       0.00000       A     3.39751e-01     4.50009e-01
 n16bf                                  7      0.0000       0.00000       A     3.38348e-01     3.93723e-01
 o17bf                                  8      0.0000       0.00000       A     3.15742e-01     3.03491e-01
 cl18bf                                17      0.0000       0.00000       A     3.46633e-01     1.10664e+00
 cl19bf                                17      0.0000       0.00000       A     3.46637e-01     1.10463e+00
 c20bf                                  6      0.0000       0.00000       A     3.31493e-01     4.15709e-01
 c21bf                                  6      0.0000       0.00000       A     3.39854e-01     4.51938e-01
 o22bf                                  8      0.0000       0.00000       A     3.04623e-01     6.13034e-01
 h23bf                                  1      0.0000       0.00000       A     1.10834e-01     4.10333e-02
 h24bf                                  1      0.0000       0.00000       A     2.54281e-01     6.72185e-02
 h25bf                                  1      0.0000       0.00000       A     2.59926e-01     8.74742e-02
 h26bf                                  1      0.0000       0.00000       A     2.59926e-01     8.74742e-02
 h27bf                                  1      0.0000       0.00000       A     2.59926e-01     8.74742e-02
 h28bf                                  1      0.0000       0.00000       A     2.62578e-01     6.76574e-02
 h29bf                                  1      0.0000       0.00000       A     2.62483e-01     6.78888e-02
 h30bf                                  1      0.0000       0.00000       A     2.42080e-01     8.75859e-02
 h31bf                                  1      0.0000       0.00000       A     2.42080e-01     8.75859e-02
 h32bf                                  1      0.0000       0.00000       A     2.42080e-01     8.75859e-02
 h33bf                                  1      0.0000       0.00000       A     2.59953e-01     8.70672e-02
 h34bf                                  1      0.0000       0.00000       A     2.59953e-01     8.70672e-02
 h35bf                                  1      0.0000       0.00000       A     2.59953e-01     8.70672e-02

[ moleculetype ]
;name             nrexcl
 cmpd_10               3

[ atoms ]
;       nr            type      resi   res      atom      cgnr      charge          mass ; qtot
         1            n0bf         1   UNL        n0         1    -0.19250       14.0070 ; qtot   -0.193
         2            n1bf         1   UNL        n1         2    -0.33572       14.0070 ; qtot   -0.528
         3            c2bf         1   UNL        c2         3    -0.12290       12.0110 ; qtot   -0.651
         4            c3bf         1   UNL        c3         4    -0.22831       12.0110 ; qtot   -0.879
         5            c4bf         1   UNL        c4         5    -0.08248       12.0110 ; qtot   -0.962
         6            c5bf         1   UNL        c5         6    -0.13074       12.0110 ; qtot   -1.093
         7            c6bf         1   UNL        c6         7    -0.10819       12.0110 ; qtot   -1.201
         8            c7bf         1   UNL        c7         8    -0.07181       12.0110 ; qtot   -1.273
         9            c8bf         1   UNL        c8         9    -0.13218       12.0110 ; qtot   -1.405
        10            c9bf         1   UNL        c9        10     0.13792       12.0110 ; qtot   -1.267
        11           c10bf         1   UNL       c10        11     0.14120       12.0110 ; qtot   -1.126
        12           c11bf         1   UNL       c11        12     0.09426       12.0110 ; qtot   -1.031
        13           c12bf         1   UNL       c12        13     0.21818       12.0110 ; qtot   -0.813
        14           c13bf         1   UNL       c13        14     0.12991       12.0110 ; qtot   -0.683
        15           c14bf         1   UNL       c14        15     0.15621       12.0110 ; qtot   -0.527
        16           c15bf         1   UNL       c15        16     0.14319       12.0110 ; qtot   -0.384
        17           n16bf         1   UNL       n16        17    -0.19282       14.0070 ; qtot   -0.577
        18           o17bf         1   UNL       o17        18    -0.33499       15.9990 ; qtot   -0.912
        19          cl18bf         1   UNL      cl18        19    -0.18967       35.4530 ; qtot   -1.101
        20          cl19bf         1   UNL      cl19        20    -0.17905       35.4530 ; qtot   -1.280
        21           c20bf         1   UNL       c20        21     0.59960       12.0110 ; qtot   -0.681
        22           c21bf         1   UNL       c21        22    -0.18985       12.0110 ; qtot   -0.871
        23           o22bf         1   UNL       o22        23    -0.53077       15.9990 ; qtot   -1.402
        24           h23bf         1   UNL       h23        24     0.37174        1.0080 ; qtot   -1.030
        25           h24bf         1   UNL       h24        25     0.22841        1.0080 ; qtot   -0.801
        26           h25bf         1   UNL       h25        26     0.06224        1.0080 ; qtot   -0.739
        27           h26bf         1   UNL       h26        27     0.06224        1.0080 ; qtot   -0.677
        28           h27bf         1   UNL       h27        28     0.06224        1.0080 ; qtot   -0.615
        29           h28bf         1   UNL       h28        29     0.14803        1.0080 ; qtot   -0.467
        30           h29bf         1   UNL       h29        30     0.14174        1.0080 ; qtot   -0.325
        31           h30bf         1   UNL       h30        31     0.04594        1.0080 ; qtot   -0.279
        32           h31bf         1   UNL       h31        32     0.04594        1.0080 ; qtot   -0.233
        33           h32bf         1   UNL       h32        33     0.04594        1.0080 ; qtot   -0.187
        34           h33bf         1   UNL       h33        34     0.06236        1.0080 ; qtot   -0.125
        35           h34bf         1   UNL       h34        35     0.06236        1.0080 ; qtot   -0.062
        36           h35bf         1   UNL       h35        36     0.06233        1.0080 ; qtot    0.000

[ bonds ]
;       ai        aj funct               r               k
         1        14     1        0.133529   326360.325098
         1        15     1        0.133897   303792.440967
         2         5     1        0.136947   313211.522852
         2        14     1        0.137830   268885.766162
         2        24     1        0.101157   427698.521191
         3         4     1        0.145352   217140.968457
         3        13     1        0.141164   268467.212939
         3        14     1        0.142291   228588.871533
         4         5     1        0.138707   339342.395557
         4        21     1        0.147989   193403.433643
         5        25     1        0.108025   341139.109961
         6        15     1        0.150625   207364.162744
         6        26     1        0.109288   308620.257031
         6        27     1        0.109288   308620.257031
         6        28     1        0.109288   308620.257031
         7         9     1        0.140438   285403.883545
         7        11     1        0.140042   275101.013379
         7        13     1        0.149020   209207.009937
         8        11     1        0.139646   304043.700586
         8        12     1        0.139329   312695.239111
         8        29     1        0.108352   327775.412939
         9        10     1        0.139804   291626.383301
         9        30     1        0.108308   326151.329395
        10        12     1        0.140817   261167.762207
        10        18     1        0.136021   283997.657080
        11        19     1        0.175568   148953.502759
        12        20     1        0.174803   157838.412158
        13        17     1        0.133563   315926.577246
        15        17     1        0.134815   268515.350391
        16        18     1        0.142958   203003.394873
        16        31     1        0.109350   300422.436328
        16        32     1        0.109350   300422.436328
        16        33     1        0.109350   300422.436328
        21        22     1        0.151770   179563.801514
        21        23     1        0.122766   635144.019629
        22        34     1        0.109301   306924.618506
        22        35     1        0.109301   306924.618506
        22        36     1        0.109301   306924.618506

[ angles ]
;       ai        aj        ak funct           theta             cth
         1        14         2     1      124.829979      572.582022
         1        14         3     1      126.711731      686.234033
         1        15         6     1      117.592758      419.874321
         1        15        17     1      125.559593      652.937218
         2         5         4     1      110.120499      319.203269
         2         5        25     1      121.332993      426.195586
         2        14         3     1      108.208084      167.360000
         3         4         5     1      105.969139      413.067692
         3         4        21     1      132.189056      408.482408
         3        13         7     1      122.883934      392.526439
         3        13        17     1      120.147903      787.348026
         4         3        13     1      139.405121      400.263673
         4         3        14     1      106.388039      239.379852
         4         5        25     1      128.735565      325.744919
         4        21        22     1      118.083031      502.441350
         4        21        23     1      121.482712      569.843869
         5         2        14     1      109.316696      474.682927
         5         2        24     1      126.589523      405.507686
         5         4        21     1      121.446640      493.454011
         6        15        17     1      116.776413      478.289469
         7         9        10     1      121.938431      722.044785
         7         9        30     1      118.244431      388.303431
         7        11         8     1      121.159302      629.896935
         7        11        19     1      120.885254      343.507383
         7        13        17     1      116.220558      554.253144
         8        11        19     1      117.640564      384.755816
         8        12        10     1      120.656090      653.339363
         8        12        20     1      119.281372      385.784419
         9         7        11     1      118.189438      600.474738
         9         7        13     1      118.489601      485.103025
         9        10        12     1      118.294655      564.207127
         9        10        18     1      123.748695      430.877336
        10         9        30     1      119.738876      419.326391
        10        12        20     1      119.904556      326.307150
        10        18        16     1      117.902969      538.599918
        11         7        13     1      122.961037      497.314073
        11         8        12     1      119.878151      648.483418
        11         8        29     1      120.210045      392.979787
        12         8        29     1      119.825150      404.303548
        12        10        18     1      117.576111      412.751415
        13         3        14     1      114.029945      843.564908
        13        17        15     1      119.403831      753.704289
        14         1        15     1      113.635658      767.536656
        14         2        24     1      123.745163      417.427547
        15         6        26     1      110.264771      499.738917
        15         6        27     1      110.264771      499.738917
        15         6        28     1      110.264771      499.738917
        18        16        31     1      109.314163      446.706034
        18        16        32     1      109.314163      446.706034
        18        16        33     1      109.314163      446.706034
        21        22        34     1      110.117142      532.411191
        21        22        35     1      110.117142      532.411191
        21        22        36     1      110.117142      532.411191
        22        21        23     1      120.796768      540.495601
        26         6        27     1      108.747475      354.430307
        26         6        28     1      108.747475      354.430307
        27         6        28     1      108.747475      354.430307
        31        16        32     1      109.703636      343.615405
        31        16        33     1      109.703636      343.615405
        32        16        33     1      109.703636      343.615405
        34        22        35     1      108.753052      355.580339
        34        22        36     1      108.753052      355.580339
        35        22        36     1      108.753052      355.580339

[ dihedrals ] ; propers for gromacs 4.5 or higher, use funct 9
;       ai        aj        ak        al funct           phase               k        pn
         1        14         2         5     9        0.000000        0.577303         1
         1        14         2         5     9      180.000000        6.016959         2
         1        14         2         5     9        0.000000        0.446895         3
         1        14         2         5     9      180.000000       -0.022279         4
         1        14         2        24     9        0.000000       -1.446627         1
         1        14         2        24     9      180.000000        2.733751         2
         1        14         2        24     9        0.000000        0.168824         3
         1        14         2        24     9      180.000000       -0.135332         4
         1        14         3         4     9        0.000000        0.303076         1
         1        14         3         4     9      180.000000       11.308038         2
         1        14         3         4     9        0.000000       -0.618294         3
         1        14         3         4     9      180.000000        0.058795         4
         1        14         3        13     9        0.000000       -0.139848         1
         1        14         3        13     9      180.000000       10.299675         2
         1        14         3        13     9        0.000000       -0.743464         3
         1        14         3        13     9      180.000000       -0.041112         4
         1        15         6        26     9        0.000000       -0.054616         1
         1        15         6        26     9      180.000000        0.030649         2
         1        15         6        26     9        0.000000       -0.033596         3
         1        15         6        26     9      180.000000       -0.015775         4
         1        15         6        27     9        0.000000       -0.054616         1
         1        15         6        27     9      180.000000        0.030649         2
         1        15         6        27     9        0.000000       -0.033596         3
         1        15         6        27     9      180.000000       -0.015775         4
         1        15         6        28     9        0.000000       -0.054615         1
         1        15         6        28     9      180.000000        0.030649         2
         1        15         6        28     9        0.000000       -0.033596         3
         1        15         6        28     9      180.000000       -0.015775         4
         1        15        17        13     9        0.000000        0.187823         1
         1        15        17        13     9      180.000000       15.561111         2
         1        15        17        13     9        0.000000        0.417405         3
         1        15        17        13     9      180.000000       -0.652649         4
         2         5         4         3     9        0.000000       -0.159309         1
         2         5         4         3     9      180.000000       30.550331         2
         2         5         4         3     9        0.000000       -5.561052         3
         2         5         4         3     9      180.000000       -0.291596         4
         2         5         4        21     9        0.000000       -0.391824         1
         2         5         4        21     9      180.000000       13.198004         2
         2         5         4        21     9        0.000000       -0.270346         3
         2         5         4        21     9      180.000000       -0.740782         4
         2        14         1        15     9        0.000000       -0.070007         1
         2        14         1        15     9      180.000000       19.844568         2
         2        14         1        15     9        0.000000        0.420102         3
         2        14         1        15     9      180.000000       -0.723633         4
         2        14         3         4     9        0.000000       -0.008727         1
         2        14         3         4     9      180.000000       17.031718         2
         2        14         3         4     9        0.000000       -4.798415         3
         2        14         3         4     9      180.000000       -0.043865         4
         2        14         3        13     9        0.000000        0.074416         1
         2        14         3        13     9      180.000000       10.519922         2
         2        14         3        13     9        0.000000       -2.449202         3
         2        14         3        13     9      180.000000       -0.033802         4
         3         4         5        25     9        0.000000        0.761849         1
         3         4         5        25     9      180.000000       16.296350         2
         3         4         5        25     9        0.000000       -0.116998         3
         3         4         5        25     9      180.000000       -0.616046         4
         3         4        21        22     9        0.000000       -0.106084         1
         3         4        21        22     9      180.000000        4.374153         2
         3         4        21        22     9        0.000000        0.277816         3
         3         4        21        22     9      180.000000       -0.250766         4
         3         4        21        23     9        0.000000       -5.506581         1
         3         4        21        23     9      180.000000        3.266773         2
         3         4        21        23     9        0.000000       -0.037761         3
         3         4        21        23     9      180.000000       -0.156929         4
         3        13         7         9     9        0.000000        1.112141         1
         3        13         7         9     9      180.000000        3.538821         2
         3        13         7         9     9        0.000000       -0.046225         3
         3        13         7         9     9      180.000000        0.114570         4
         3        13         7        11     9        0.000000       -1.422103         1
         3        13         7        11     9      180.000000        2.181269         2
         3        13         7        11     9        0.000000        0.227356         3
         3        13         7        11     9      180.000000        0.071837         4
         3        13        17        15     9        0.000000       -0.247115         1
         3        13        17        15     9      180.000000       21.893600         2
         3        13        17        15     9        0.000000       -0.964790         3
         3        13        17        15     9      180.000000       -0.245324         4
         3        14         1        15     9        0.000000       -0.300797         1
         3        14         1        15     9      180.000000       16.641816         2
         3        14         1        15     9        0.000000       -0.606678         3
         3        14         1        15     9      180.000000       -0.257377         4
         3        14         2         5     9        0.000000        0.253663         1
         3        14         2         5     9      180.000000       21.350238         2
         3        14         2         5     9        0.000000       -5.786064         3
         3        14         2         5     9      180.000000       -0.900516         4
         3        14         2        24     9        0.000000        0.371384         1
         3        14         2        24     9      180.000000        3.879867         2
         3        14         2        24     9        0.000000        0.493672         3
         3        14         2        24     9      180.000000        0.147742         4
         4         3        13         7     9        0.000000       -0.054622         1
         4         3        13         7     9      180.000000       11.759229         2
         4         3        13         7     9        0.000000        0.577435         3
         4         3        13         7     9      180.000000       -0.708553         4
         4         3        13        17     9        0.000000        0.050490         1
         4         3        13        17     9      180.000000        7.678309         2
         4         3        13        17     9        0.000000        0.176179         3
         4         3        13        17     9      180.000000       -0.480850         4
         4         5         2        14     9        0.000000        0.303847         1
         4         5         2        14     9      180.000000       25.037855         2
         4         5         2        14     9        0.000000       -5.079941         3
         4         5         2        14     9      180.000000       -0.832412         4
         4         5         2        24     9        0.000000        0.745114         1
         4         5         2        24     9      180.000000        5.918562         2
         4         5         2        24     9        0.000000        0.489233         3
         4         5         2        24     9      180.000000        0.171073         4
         4        21        22        34     9        0.000000        0.018166         1
         4        21        22        34     9      180.000000        0.017360         2
         4        21        22        34     9        0.000000        0.204828         3
         4        21        22        34     9      180.000000       -0.011817         4
         4        21        22        35     9        0.000000        0.018166         1
         4        21        22        35     9      180.000000        0.017360         2
         4        21        22        35     9        0.000000        0.204828         3
         4        21        22        35     9      180.000000       -0.011817         4
         4        21        22        36     9        0.000000        0.018166         1
         4        21        22        36     9      180.000000        0.017360         2
         4        21        22        36     9        0.000000        0.204828         3
         4        21        22        36     9      180.000000       -0.011817         4
         5         4         3        13     9        0.000000        0.489874         1
         5         4         3        13     9      180.000000        5.786953         2
         5         4         3        13     9        0.000000       -1.107707         3
         5         4         3        13     9      180.000000       -0.148134         4
         5         4         3        14     9        0.000000        0.153250         1
         5         4         3        14     9      180.000000       25.871715         2
         5         4         3        14     9        0.000000      -10.218562         3
         5         4         3        14     9      180.000000        0.415605         4
         5         4        21        22     9        0.000000        0.141998         1
         5         4        21        22     9      180.000000        3.448864         2
         5         4        21        22     9        0.000000        0.151798         3
         5         4        21        22     9      180.000000       -0.309582         4
         5         4        21        23     9        0.000000        3.662395         1
         5         4        21        23     9      180.000000        2.951691         2
         5         4        21        23     9        0.000000        0.530817         3
         5         4        21        23     9      180.000000       -0.214263         4
         6        15         1        14     9        0.000000        0.385874         1
         6        15         1        14     9      180.000000       22.686859         2
         6        15         1        14     9        0.000000        0.820947         3
         6        15         1        14     9      180.000000       -0.935362         4
         6        15        17        13     9        0.000000        0.214017         1
         6        15        17        13     9      180.000000       16.893047         2
         6        15        17        13     9        0.000000        0.250711         3
         6        15        17        13     9      180.000000       -0.831792         4
         7         9        10        12     9        0.000000       -0.093181         1
         7         9        10        12     9      180.000000       15.356967         2
         7         9        10        12     9        0.000000       -0.953541         3
         7         9        10        12     9      180.000000       -0.286551         4
         7         9        10        18     9        0.000000        0.291215         1
         7         9        10        18     9      180.000000       17.462565         2
         7         9        10        18     9        0.000000        0.045126         3
         7         9        10        18     9      180.000000       -0.232496         4
         7        11         8        12     9        0.000000       -0.169801         1
         7        11         8        12     9      180.000000       17.420788         2
         7        11         8        12     9        0.000000       -1.582256         3
         7        11         8        12     9      180.000000       -0.410841         4
         7        11         8        29     9        0.000000        0.180345         1
         7        11         8        29     9      180.000000       13.706775         2
         7        11         8        29     9        0.000000       -0.634436         3
         7        11         8        29     9      180.000000        0.114019         4
         7        13         3        14     9        0.000000        0.355765         1
         7        13         3        14     9      180.000000       13.726161         2
         7        13         3        14     9        0.000000        0.276354         3
         7        13         3        14     9      180.000000       -0.652540         4
         7        13        17        15     9        0.000000        0.086935         1
         7        13        17        15     9      180.000000       22.312674         2
         7        13        17        15     9        0.000000        0.718503         3
         7        13        17        15     9      180.000000       -0.788717         4
         8        11         7         9     9        0.000000       -0.073313         1
         8        11         7         9     9      180.000000       17.589073         2
         8        11         7         9     9        0.000000       -1.500149         3
         8        11         7         9     9      180.000000       -0.390822         4
         8        11         7        13     9        0.000000       -0.002864         1
         8        11         7        13     9      180.000000       13.633120         2
         8        11         7        13     9        0.000000       -0.196025         3
         8        11         7        13     9      180.000000       -0.290471         4
         8        12        10         9     9        0.000000       -0.091986         1
         8        12        10         9     9      180.000000       13.997009         2
         8        12        10         9     9        0.000000       -0.877784         3
         8        12        10         9     9      180.000000       -0.090945         4
         8        12        10        18     9        0.000000        0.333678         1
         8        12        10        18     9      180.000000       15.415492         2
         8        12        10        18     9        0.000000        0.052206         3
         8        12        10        18     9      180.000000       -0.072282         4
         9         7        11        19     9        0.000000        0.268872         1
         9         7        11        19     9      180.000000       19.107781         2
         9         7        11        19     9        0.000000        0.269762         3
         9         7        11        19     9      180.000000       -0.815060         4
         9         7        13        17     9        0.000000       -2.081505         1
         9         7        13        17     9      180.000000        4.938003         2
         9         7        13        17     9        0.000000       -0.371225         3
         9         7        13        17     9      180.000000        0.453618         4
         9        10        12        20     9        0.000000        0.094534         1
         9        10        12        20     9      180.000000       14.818397         2
         9        10        12        20     9        0.000000       -0.065468         3
         9        10        12        20     9      180.000000       -0.263053         4
         9        10        18        16     9        0.000000       -1.393500         1
         9        10        18        16     9      180.000000        4.709947         2
         9        10        18        16     9        0.000000       -1.151886         3
         9        10        18        16     9      180.000000        0.548802         4
        10         9         7        11     9        0.000000       -0.230920         1
        10         9         7        11     9      180.000000       17.798037         2
        10         9         7        11     9        0.000000       -1.676890         3
        10         9         7        11     9      180.000000       -0.359304         4
        10         9         7        13     9        0.000000        0.031460         1
        10         9         7        13     9      180.000000       15.823171         2
        10         9         7        13     9        0.000000       -0.082237         3
        10         9         7        13     9      180.000000       -0.400002         4
        10        12         8        11     9        0.000000       -0.278984         1
        10        12         8        11     9      180.000000       17.716254         2
        10        12         8        11     9        0.000000       -1.461383         3
        10        12         8        11     9      180.000000       -0.415959         4
        10        12         8        29     9        0.000000        0.160086         1
        10        12         8        29     9      180.000000       13.524140         2
        10        12         8        29     9        0.000000       -0.492360         3
        10        12         8        29     9      180.000000        0.121120         4
        10        18        16        31     9        0.000000       -0.035373         1
        10        18        16        31     9      180.000000        0.005512         2
        10        18        16        31     9        0.000000        0.522930         3
        10        18        16        31     9      180.000000       -0.026902         4
        10        18        16        32     9        0.000000       -0.035373         1
        10        18        16        32     9      180.000000        0.005512         2
        10        18        16        32     9        0.000000        0.522930         3
        10        18        16        32     9      180.000000       -0.026902         4
        10        18        16        33     9        0.000000       -0.035373         1
        10        18        16        33     9      180.000000        0.005512         2
        10        18        16        33     9        0.000000        0.522930         3
        10        18        16        33     9      180.000000       -0.026902         4
        11         7         9        30     9        0.000000       -0.012160         1
        11         7         9        30     9      180.000000       13.446341         2
        11         7         9        30     9        0.000000       -0.742527         3
        11         7         9        30     9      180.000000        0.226882         4
        11         7        13        17     9        0.000000        1.083409         1
        11         7        13        17     9      180.000000        2.957594         2
        11         7        13        17     9        0.000000        0.374110         3
        11         7        13        17     9      180.000000        0.092154         4
        11         8        12        20     9        0.000000        0.271047         1
        11         8        12        20     9      180.000000       18.760299         2
        11         8        12        20     9        0.000000        0.275045         3
        11         8        12        20     9      180.000000       -0.665679         4
        12         8        11        19     9        0.000000        0.344077         1
        12         8        11        19     9      180.000000       19.457400         2
        12         8        11        19     9        0.000000        0.328713         3
        12         8        11        19     9      180.000000       -0.753218         4
        12        10         9        30     9        0.000000        0.192952         1
        12        10         9        30     9      180.000000       12.549842         2
        12        10         9        30     9        0.000000       -0.427659         3
        12        10         9        30     9      180.000000        0.163219         4
        12        10        18        16     9        0.000000        3.202600         1
        12        10        18        16     9      180.000000        2.617256         2
        12        10        18        16     9        0.000000        0.770248         3
        12        10        18        16     9      180.000000        0.230798         4
        13         3         4        21     9        0.000000       -0.082673         1
        13         3         4        21     9      180.000000        4.412439         2
        13         3         4        21     9        0.000000        0.198339         3
        13         3         4        21     9      180.000000       -0.381866         4
        13         7         9        30     9        0.000000       -0.132948         1
        13         7         9        30     9      180.000000       12.953727         2
        13         7         9        30     9        0.000000       -0.297032         3
        13         7         9        30     9      180.000000        0.210569         4
        13         7        11        19     9        0.000000        0.065247         1
        13         7        11        19     9      180.000000       16.082478         2
        13         7        11        19     9        0.000000        0.268783         3
        13         7        11        19     9      180.000000       -0.786049         4
        14         1        15        17     9        0.000000        0.301978         1
        14         1        15        17     9      180.000000       20.315872         2
        14         1        15        17     9        0.000000        0.631354         3
        14         1        15        17     9      180.000000       -0.608561         4
        14         2         5        25     9        0.000000        0.828959         1
        14         2         5        25     9      180.000000       12.807612         2
        14         2         5        25     9        0.000000        0.061653         3
        14         2         5        25     9      180.000000       -0.449709         4
        14         3         4        21     9        0.000000        0.182564         1
        14         3         4        21     9      180.000000        7.423108         2
        14         3         4        21     9        0.000000       -0.337225         3
        14         3         4        21     9      180.000000       -0.127620         4
        14         3        13        17     9        0.000000       -0.170256         1
        14         3        13        17     9      180.000000       13.709951         2
        14         3        13        17     9        0.000000       -0.503340         3
        14         3        13        17     9      180.000000       -0.365564         4
        17        15         6        26     9        0.000000       -0.010730         1
        17        15         6        26     9      180.000000        0.021637         2
        17        15         6        26     9        0.000000        0.041915         3
        17        15         6        26     9      180.000000       -0.014883         4
        17        15         6        27     9        0.000000       -0.010730         1
        17        15         6        27     9      180.000000        0.021637         2
        17        15         6        27     9        0.000000        0.041915         3
        17        15         6        27     9      180.000000       -0.014883         4
        17        15         6        28     9        0.000000       -0.010730         1
        17        15         6        28     9      180.000000        0.021637         2
        17        15         6        28     9        0.000000        0.041915         3
        17        15         6        28     9      180.000000       -0.014883         4
        18        10         9        30     9        0.000000        0.094766         1
        18        10         9        30     9      180.000000       13.325385         2
        18        10         9        30     9        0.000000       -0.103308         3
        18        10         9        30     9      180.000000        0.289726         4
        18        10        12        20     9        0.000000       -0.195079         1
        18        10        12        20     9      180.000000       17.539453         2
        18        10        12        20     9        0.000000       -0.084371         3
        18        10        12        20     9      180.000000       -0.427696         4
        19        11         8        29     9        0.000000        0.121926         1
        19        11         8        29     9      180.000000       14.246095         2
        19        11         8        29     9        0.000000       -0.128840         3
        19        11         8        29     9      180.000000        0.173256         4
        20        12         8        29     9        0.000000        0.140764         1
        20        12         8        29     9      180.000000       13.892992         2
        20        12         8        29     9        0.000000       -0.188330         3
        20        12         8        29     9      180.000000        0.163077         4
        21         4         5        25     9        0.000000       -0.187116         1
        21         4         5        25     9      180.000000       10.995563         2
        21         4         5        25     9        0.000000       -0.380884         3
        21         4         5        25     9      180.000000       -0.184708         4
        23        21        22        34     9        0.000000       -0.018688         1
        23        21        22        34     9      180.000000        0.135181         2
        23        21        22        34     9        0.000000        0.036992         3
        23        21        22        34     9      180.000000       -0.023668         4
        23        21        22        35     9        0.000000       -0.018688         1
        23        21        22        35     9      180.000000        0.135181         2
        23        21        22        35     9        0.000000        0.036992         3
        23        21        22        35     9      180.000000       -0.023668         4
        23        21        22        36     9        0.000000       -0.018688         1
        23        21        22        36     9      180.000000        0.135181         2
        23        21        22        36     9        0.000000        0.036992         3
        23        21        22        36     9      180.000000       -0.023668         4
        24         2         5        25     9        0.000000       -1.352137         1
        24         2         5        25     9      180.000000        1.387098         2
        24         2         5        25     9        0.000000        0.033974         3
        24         2         5        25     9      180.000000       -0.028376         4

[ dihedrals ] ; impropers
;       ai        aj        ak        al funct           phase               k        pn
        13         3         7        17     4      180.000000        7.660847         2
        13         7        17         3     4      180.000000        7.660847         2
        13        17         3         7     4      180.000000        7.660847         2
        15         1         6        17     4      180.000000       27.893333         2
        15         6        17         1     4      180.000000       27.893333         2
        15        17         1         6     4      180.000000       27.893333         2
        21         4        22        23     4      180.000000        5.578667         2
        21        22        23         4     4      180.000000        5.578667         2
        21        23         4        22     4      180.000000        5.578667         2

[ pairs ]
;       ai        aj funct
         1         4     1
         1         5     1
         1        13     1
         1        24     1
         1        26     1
         1        27     1
         1        28     1
         2        13     1
         2        15     1
         2        21     1
         3         9     1
         3        11     1
         3        15     1
         3        22     1
         3        23     1
         3        24     1
         3        25     1
         4         7     1
         4        17     1
         4        24     1
         4        34     1
         4        35     1
         4        36     1
         5        13     1
         5        22     1
         5        23     1
         6        13     1
         6        14     1
         7        12     1
         7        14     1
         7        15     1
         7        18     1
         7        29     1
         8         9     1
         8        13     1
         8        18     1
         9        16     1
         9        17     1
         9        19     1
         9        20     1
        10        11     1
        10        13     1
        10        29     1
        10        31     1
        10        32     1
        10        33     1
        11        17     1
        11        20     1
        11        30     1
        12        16     1
        12        19     1
        12        30     1
        13        19     1
        13        21     1
        13        30     1
        14        17     1
        14        21     1
        14        25     1
        17        26     1
        17        27     1
        17        28     1
        18        20     1
        18        30     1
        19        29     1
        20        29     1
        21        25     1
        23        34     1
        23        35     1
        23        36     1
        24        25     1
