; ITP file created by ByteFF-ML, 2025-12-06 08:15:38.045651

[ atomtypes ]
;name           bonded.type        at.num        mass        charge   ptype           sigma         epsilon
 n0bf                                   7      0.0000       0.00000       A     3.38484e-01     3.92333e-01
 n1bf                                   7      0.0000       0.00000       A     3.20577e-01     8.54909e-01
 c2bf                                   6      0.0000       0.00000       A     3.31512e-01     4.12212e-01
 c3bf                                   6      0.0000       0.00000       A     3.31426e-01     4.12571e-01
 c4bf                                   6      0.0000       0.00000       A     3.31599e-01     4.11534e-01
 c5bf                                   6      0.0000       0.00000       A     3.39816e-01     4.51116e-01
 c6bf                                   6      0.0000       0.00000       A     3.31670e-01     4.09377e-01
 c7bf                                   6      0.0000       0.00000       A     3.31433e-01     4.13971e-01
 c8bf                                   6      0.0000       0.00000       A     3.31712e-01     4.14364e-01
 c9bf                                   6      0.0000       0.00000       A     3.31528e-01     4.12206e-01
 c10bf                                  6      0.0000       0.00000       A     3.31391e-01     4.13545e-01
 c11bf                                  6      0.0000       0.00000       A     3.31503e-01     4.12081e-01
 c12bf                                  6      0.0000       0.00000       A     3.31699e-01     4.11550e-01
 c13bf                                  6      0.0000       0.00000       A     3.31632e-01     4.11749e-01
 c14bf                                  6      0.0000       0.00000       A     3.31489e-01     4.11120e-01
 c15bf                                  6      0.0000       0.00000       A     3.39751e-01     4.50009e-01
 n16bf                                  7      0.0000       0.00000       A     3.38324e-01     3.93605e-01
 o17bf                                  8      0.0000       0.00000       A     3.15742e-01     3.03491e-01
 cl18bf                                17      0.0000       0.00000       A     3.46633e-01     1.10664e+00
 cl19bf                                17      0.0000       0.00000       A     3.46637e-01     1.10463e+00
 cl20bf                                17      0.0000       0.00000       A     3.47317e-01     1.10843e+00
 h21bf                                  1      0.0000       0.00000       A     1.10904e-01     4.11323e-02
 h22bf                                  1      0.0000       0.00000       A     2.53828e-01     6.78457e-02
 h23bf                                  1      0.0000       0.00000       A     2.59926e-01     8.74742e-02
 h24bf                                  1      0.0000       0.00000       A     2.59926e-01     8.74742e-02
 h25bf                                  1      0.0000       0.00000       A     2.59926e-01     8.74742e-02
 h26bf                                  1      0.0000       0.00000       A     2.62578e-01     6.76574e-02
 h27bf                                  1      0.0000       0.00000       A     2.62483e-01     6.78888e-02
 h28bf                                  1      0.0000       0.00000       A     2.42080e-01     8.75859e-02
 h29bf                                  1      0.0000       0.00000       A     2.42080e-01     8.75859e-02
 h30bf                                  1      0.0000       0.00000       A     2.42080e-01     8.75859e-02

[ moleculetype ]
;name             nrexcl
 cmpd_12               3

[ atoms ]
;       nr            type      resi   res      atom      cgnr      charge          mass ; qtot
         1            n0bf         1   UNL        n0         1    -0.19014       14.0070 ; qtot   -0.190
         2            n1bf         1   UNL        n1         2    -0.32419       14.0070 ; qtot   -0.514
         3            c2bf         1   UNL        c2         3    -0.16892       12.0110 ; qtot   -0.683
         4            c3bf         1   UNL        c3         4     0.07306       12.0110 ; qtot   -0.610
         5            c4bf         1   UNL        c4         5    -0.13830       12.0110 ; qtot   -0.748
         6            c5bf         1   UNL        c5         6    -0.13074       12.0110 ; qtot   -0.879
         7            c6bf         1   UNL        c6         7    -0.10555       12.0110 ; qtot   -0.985
         8            c7bf         1   UNL        c7         8    -0.07181       12.0110 ; qtot   -1.057
         9            c8bf         1   UNL        c8         9    -0.13118       12.0110 ; qtot   -1.188
        10            c9bf         1   UNL        c9        10     0.13792       12.0110 ; qtot   -1.050
        11           c10bf         1   UNL       c10        11     0.14202       12.0110 ; qtot   -0.908
        12           c11bf         1   UNL       c11        12     0.09426       12.0110 ; qtot   -0.814
        13           c12bf         1   UNL       c12        13     0.22518       12.0110 ; qtot   -0.588
        14           c13bf         1   UNL       c13        14     0.13070       12.0110 ; qtot   -0.458
        15           c14bf         1   UNL       c14        15     0.15781       12.0110 ; qtot   -0.300
        16           c15bf         1   UNL       c15        16     0.14319       12.0110 ; qtot   -0.157
        17           n16bf         1   UNL       n16        17    -0.19476       14.0070 ; qtot   -0.351
        18           o17bf         1   UNL       o17        18    -0.33499       15.9990 ; qtot   -0.686
        19          cl18bf         1   UNL      cl18        19    -0.18967       35.4530 ; qtot   -0.876
        20          cl19bf         1   UNL      cl19        20    -0.17905       35.4530 ; qtot   -1.055
        21          cl20bf         1   UNL      cl20        21    -0.15777       35.4530 ; qtot   -1.213
        22           h21bf         1   UNL       h21        22     0.36903        1.0080 ; qtot   -0.844
        23           h22bf         1   UNL       h22        23     0.22962        1.0080 ; qtot   -0.614
        24           h23bf         1   UNL       h23        24     0.06224        1.0080 ; qtot   -0.552
        25           h24bf         1   UNL       h24        25     0.06224        1.0080 ; qtot   -0.490
        26           h25bf         1   UNL       h25        26     0.06224        1.0080 ; qtot   -0.428
        27           h26bf         1   UNL       h26        27     0.14803        1.0080 ; qtot   -0.280
        28           h27bf         1   UNL       h27        28     0.14174        1.0080 ; qtot   -0.138
        29           h28bf         1   UNL       h28        29     0.04594        1.0080 ; qtot   -0.092
        30           h29bf         1   UNL       h29        30     0.04594        1.0080 ; qtot   -0.046
        31           h30bf         1   UNL       h30        31     0.04591        1.0080 ; qtot    0.000

[ bonds ]
;       ai        aj funct               r               k
         1        14     1        0.133521   325131.275098
         1        15     1        0.133937   301891.381934
         2         5     1        0.138783   282475.568750
         2        14     1        0.137063   283971.098486
         2        22     1        0.101100   429442.961133
         3         4     1        0.143875   233015.218701
         3        13     1        0.140848   274455.282031
         3        14     1        0.142620   224121.307471
         4         5     1        0.137532   373051.328857
         4        21     1        0.174079   178763.442969
         5        23     1        0.108021   341307.910254
         6        15     1        0.150625   207364.162744
         6        24     1        0.109288   308620.257031
         6        25     1        0.109288   308620.257031
         6        26     1        0.109288   308620.257031
         7         9     1        0.140442   285494.029541
         7        11     1        0.140022   275812.196338
         7        13     1        0.149013   209645.124585
         8        11     1        0.139646   304043.700586
         8        12     1        0.139329   312695.213574
         8        27     1        0.108352   327775.412939
         9        10     1        0.139804   291626.383301
         9        28     1        0.108308   326151.329395
        10        12     1        0.140817   261167.762207
        10        18     1        0.136021   283997.631543
        11        19     1        0.175568   148953.502759
        12        20     1        0.174803   157838.412158
        13        17     1        0.133582   314350.912061
        15        17     1        0.134929   265616.633105
        16        18     1        0.142958   203003.407642
        16        29     1        0.109350   300422.436328
        16        30     1        0.109350   300422.436328
        16        31     1        0.109350   300422.436328

[ angles ]
;       ai        aj        ak funct           theta             cth
         1        14         2     1      125.509399      559.537347
         1        14         3     1      126.131615      695.575508
         1        15         6     1      117.606339      412.176543
         1        15        17     1      125.654503      650.725896
         2         5         4     1      108.703506      302.495839
         2         5        23     1      121.786514      453.457663
         2        14         3     1      107.927208      167.360000
         3         4         5     1      107.853783      365.441366
         3         4        21     1      128.189499      356.582734
         3        13         7     1      122.371826      391.153117
         3        13        17     1      120.020370      789.882201
         4         3        13     1      139.310867      389.851395
         4         3        14     1      105.710838      376.205832
         4         5        23     1      129.331741      345.025596
         5         2        14     1      109.177391      436.341767
         5         2        22     1      126.505859      401.084882
         5         4        21     1      123.221825      399.923295
         6        15        17     1      116.632767      476.230476
         7         9        10     1      121.931992      721.137452
         7         9        28     1      118.268448      388.652939
         7        11         8     1      121.127014      628.119297
         7        11        19     1      120.954430      343.227656
         7        13        17     1      116.609863      544.865001
         8        11        19     1      117.640564      384.755816
         8        12        10     1      120.656090      653.339363
         8        12        20     1      119.281372      385.784419
         9         7        11     1      118.198997      594.861234
         9         7        13     1      118.396729      488.523370
         9        10        12     1      118.294655      564.207063
         9        10        18     1      123.748695      430.877336
        10         9        28     1      119.738892      419.326422
        10        12        20     1      119.904556      326.307150
        10        18        16     1      117.902969      538.599790
        11         7        13     1      122.852310      498.951544
        11         8        12     1      119.878151      648.483418
        11         8        27     1      120.210045      392.979787
        12         8        27     1      119.825157      404.303548
        12        10        18     1      117.576111      412.751447
        13         3        14     1      114.895363      843.838027
        13        17        15     1      119.610275      738.268447
        14         1        15     1      113.733078      752.063147
        14         2        22     1      123.962357      423.829477
        15         6        24     1      110.264771      499.738917
        15         6        25     1      110.264771      499.738917
        15         6        26     1      110.264771      499.738917
        18        16        29     1      109.314163      446.706034
        18        16        30     1      109.314163      446.706034
        18        16        31     1      109.314163      446.706034
        24         6        25     1      108.747475      354.430307
        24         6        26     1      108.747475      354.430307
        25         6        26     1      108.747475      354.430371
        29        16        30     1      109.703636      343.615405
        29        16        31     1      109.703636      343.615405
        30        16        31     1      109.703636      343.615405

[ dihedrals ] ; propers for gromacs 4.5 or higher, use funct 9
;       ai        aj        ak        al funct           phase               k        pn
         1        14         2         5     9        0.000000        0.658718         1
         1        14         2         5     9      180.000000        6.529162         2
         1        14         2         5     9        0.000000        0.349010         3
         1        14         2         5     9      180.000000       -0.014324         4
         1        14         2        22     9        0.000000       -1.683353         1
         1        14         2        22     9      180.000000        2.699257         2
         1        14         2        22     9        0.000000        0.079374         3
         1        14         2        22     9      180.000000       -0.166488         4
         1        14         3         4     9        0.000000       -0.044996         1
         1        14         3         4     9      180.000000       11.894608         2
         1        14         3         4     9        0.000000       -1.057844         3
         1        14         3         4     9      180.000000       -0.068810         4
         1        14         3        13     9        0.000000       -0.189525         1
         1        14         3        13     9      180.000000       10.348615         2
         1        14         3        13     9        0.000000       -0.885915         3
         1        14         3        13     9      180.000000       -0.048988         4
         1        15         6        24     9        0.000000       -0.066133         1
         1        15         6        24     9      180.000000        0.034943         2
         1        15         6        24     9        0.000000       -0.028937         3
         1        15         6        24     9      180.000000       -0.018016         4
         1        15         6        25     9        0.000000       -0.066134         1
         1        15         6        25     9      180.000000        0.034942         2
         1        15         6        25     9        0.000000       -0.028936         3
         1        15         6        25     9      180.000000       -0.018016         4
         1        15         6        26     9        0.000000       -0.066134         1
         1        15         6        26     9      180.000000        0.034942         2
         1        15         6        26     9        0.000000       -0.028936         3
         1        15         6        26     9      180.000000       -0.018016         4
         1        15        17        13     9        0.000000        0.106067         1
         1        15        17        13     9      180.000000       14.940376         2
         1        15        17        13     9        0.000000        0.499445         3
         1        15        17        13     9      180.000000       -0.525215         4
         2         5         4         3     9        0.000000       -0.137094         1
         2         5         4         3     9      180.000000       31.457403         2
         2         5         4         3     9        0.000000       -5.688147         3
         2         5         4         3     9      180.000000       -0.836470         4
         2         5         4        21     9        0.000000        0.949332         1
         2         5         4        21     9      180.000000       21.979828         2
         2         5         4        21     9        0.000000        0.670710         3
         2         5         4        21     9      180.000000       -1.546408         4
         2        14         1        15     9        0.000000        0.106346         1
         2        14         1        15     9      180.000000       20.960359         2
         2        14         1        15     9        0.000000        0.228977         3
         2        14         1        15     9      180.000000       -0.833870         4
         2        14         3         4     9        0.000000        0.083196         1
         2        14         3         4     9      180.000000       17.954022         2
         2        14         3         4     9        0.000000       -6.063584         3
         2        14         3         4     9      180.000000       -0.204390         4
         2        14         3        13     9        0.000000        0.150145         1
         2        14         3        13     9      180.000000       11.087928         2
         2        14         3        13     9        0.000000       -2.825515         3
         2        14         3        13     9      180.000000       -0.032218         4
         3         4         5        23     9        0.000000        0.659054         1
         3         4         5        23     9      180.000000       15.465843         2
         3         4         5        23     9        0.000000       -0.132071         3
         3         4         5        23     9      180.000000       -0.613446         4
         3        13         7         9     9        0.000000        1.943361         1
         3        13         7         9     9      180.000000        2.962055         2
         3        13         7         9     9        0.000000        0.060164         3
         3        13         7         9     9      180.000000        0.112086         4
         3        13         7        11     9        0.000000       -0.865653         1
         3        13         7        11     9      180.000000        1.611908         2
         3        13         7        11     9        0.000000        0.321939         3
         3        13         7        11     9      180.000000        0.039569         4
         3        13        17        15     9        0.000000       -0.326919         1
         3        13        17        15     9      180.000000       21.632523         2
         3        13        17        15     9        0.000000       -1.036152         3
         3        13        17        15     9      180.000000       -0.371196         4
         3        14         1        15     9        0.000000       -0.231891         1
         3        14         1        15     9      180.000000       17.305881         2
         3        14         1        15     9        0.000000       -0.888627         3
         3        14         1        15     9      180.000000       -0.356476         4
         3        14         2         5     9        0.000000        0.318009         1
         3        14         2         5     9      180.000000       21.641707         2
         3        14         2         5     9        0.000000       -6.017887         3
         3        14         2         5     9      180.000000       -0.924943         4
         3        14         2        22     9        0.000000        0.717388         1
         3        14         2        22     9      180.000000        3.311225         2
         3        14         2        22     9        0.000000        0.487863         3
         3        14         2        22     9      180.000000        0.174106         4
         4         3        13         7     9        0.000000       -0.058768         1
         4         3        13         7     9      180.000000       10.807195         2
         4         3        13         7     9        0.000000        0.443817         3
         4         3        13         7     9      180.000000       -0.628308         4
         4         3        13        17     9        0.000000        0.038341         1
         4         3        13        17     9      180.000000        7.256301         2
         4         3        13        17     9        0.000000        0.249988         3
         4         3        13        17     9      180.000000       -0.451614         4
         4         5         2        14     9        0.000000        0.483986         1
         4         5         2        14     9      180.000000       21.125414         2
         4         5         2        14     9        0.000000       -4.778281         3
         4         5         2        14     9      180.000000       -0.944393         4
         4         5         2        22     9        0.000000        0.603827         1
         4         5         2        22     9      180.000000        3.301441         2
         4         5         2        22     9        0.000000        0.505782         3
         4         5         2        22     9      180.000000        0.040765         4
         5         4         3        13     9        0.000000       -0.018947         1
         5         4         3        13     9      180.000000        4.512428         2
         5         4         3        13     9        0.000000       -1.342629         3
         5         4         3        13     9      180.000000        0.242078         4
         5         4         3        14     9        0.000000        0.174695         1
         5         4         3        14     9      180.000000       25.286457         2
         5         4         3        14     9        0.000000       -9.493384         3
         5         4         3        14     9      180.000000       -0.022197         4
         6        15         1        14     9        0.000000        0.278743         1
         6        15         1        14     9      180.000000       22.449799         2
         6        15         1        14     9        0.000000        0.793062         3
         6        15         1        14     9      180.000000       -0.918552         4
         6        15        17        13     9        0.000000        0.297611         1
         6        15        17        13     9      180.000000       16.114155         2
         6        15        17        13     9        0.000000        0.281898         3
         6        15        17        13     9      180.000000       -0.728903         4
         7         9        10        12     9        0.000000       -0.063303         1
         7         9        10        12     9      180.000000       15.319475         2
         7         9        10        12     9        0.000000       -0.968170         3
         7         9        10        12     9      180.000000       -0.279285         4
         7         9        10        18     9        0.000000        0.297206         1
         7         9        10        18     9      180.000000       17.543222         2
         7         9        10        18     9        0.000000        0.069986         3
         7         9        10        18     9      180.000000       -0.247836         4
         7        11         8        12     9        0.000000       -0.144876         1
         7        11         8        12     9      180.000000       17.373839         2
         7        11         8        12     9        0.000000       -1.583879         3
         7        11         8        12     9      180.000000       -0.409080         4
         7        11         8        27     9        0.000000        0.187453         1
         7        11         8        27     9      180.000000       13.711158         2
         7        11         8        27     9        0.000000       -0.635968         3
         7        11         8        27     9      180.000000        0.108687         4
         7        13         3        14     9        0.000000        0.260349         1
         7        13         3        14     9      180.000000       14.356969         2
         7        13         3        14     9        0.000000        0.086723         3
         7        13         3        14     9      180.000000       -0.730763         4
         7        13        17        15     9        0.000000       -0.074823         1
         7        13        17        15     9      180.000000       22.001122         2
         7        13        17        15     9        0.000000        0.699743         3
         7        13        17        15     9      180.000000       -0.826008         4
         8        11         7         9     9        0.000000       -0.086116         1
         8        11         7         9     9      180.000000       17.599214         2
         8        11         7         9     9        0.000000       -1.525790         3
         8        11         7         9     9      180.000000       -0.396108         4
         8        11         7        13     9        0.000000       -0.009844         1
         8        11         7        13     9      180.000000       13.699723         2
         8        11         7        13     9        0.000000       -0.195920         3
         8        11         7        13     9      180.000000       -0.303699         4
         8        12        10         9     9        0.000000       -0.091986         1
         8        12        10         9     9      180.000000       13.997009         2
         8        12        10         9     9        0.000000       -0.877784         3
         8        12        10         9     9      180.000000       -0.090945         4
         8        12        10        18     9        0.000000        0.333678         1
         8        12        10        18     9      180.000000       15.415492         2
         8        12        10        18     9        0.000000        0.052206         3
         8        12        10        18     9      180.000000       -0.072282         4
         9         7        11        19     9        0.000000        0.263315         1
         9         7        11        19     9      180.000000       19.122539         2
         9         7        11        19     9        0.000000        0.269127         3
         9         7        11        19     9      180.000000       -0.820907         4
         9         7        13        17     9        0.000000       -2.052202         1
         9         7        13        17     9      180.000000        4.865135         2
         9         7        13        17     9        0.000000       -0.360466         3
         9         7        13        17     9      180.000000        0.422264         4
         9        10        12        20     9        0.000000        0.094534         1
         9        10        12        20     9      180.000000       14.818397         2
         9        10        12        20     9        0.000000       -0.065468         3
         9        10        12        20     9      180.000000       -0.263053         4
         9        10        18        16     9        0.000000       -1.393501         1
         9        10        18        16     9      180.000000        4.709946         2
         9        10        18        16     9        0.000000       -1.151886         3
         9        10        18        16     9      180.000000        0.548802         4
        10         9         7        11     9        0.000000       -0.244836         1
        10         9         7        11     9      180.000000       17.787862         2
        10         9         7        11     9        0.000000       -1.676901         3
        10         9         7        11     9      180.000000       -0.363217         4
        10         9         7        13     9        0.000000        0.022265         1
        10         9         7        13     9      180.000000       15.796197         2
        10         9         7        13     9        0.000000       -0.122846         3
        10         9         7        13     9      180.000000       -0.417132         4
        10        12         8        11     9        0.000000       -0.278984         1
        10        12         8        11     9      180.000000       17.716254         2
        10        12         8        11     9        0.000000       -1.461383         3
        10        12         8        11     9      180.000000       -0.415959         4
        10        12         8        27     9        0.000000        0.160086         1
        10        12         8        27     9      180.000000       13.524140         2
        10        12         8        27     9        0.000000       -0.492360         3
        10        12         8        27     9      180.000000        0.121120         4
        10        18        16        29     9        0.000000       -0.035373         1
        10        18        16        29     9      180.000000        0.005513         2
        10        18        16        29     9        0.000000        0.522930         3
        10        18        16        29     9      180.000000       -0.026902         4
        10        18        16        30     9        0.000000       -0.035373         1
        10        18        16        30     9      180.000000        0.005513         2
        10        18        16        30     9        0.000000        0.522930         3
        10        18        16        30     9      180.000000       -0.026902         4
        10        18        16        31     9        0.000000       -0.035373         1
        10        18        16        31     9      180.000000        0.005513         2
        10        18        16        31     9        0.000000        0.522930         3
        10        18        16        31     9      180.000000       -0.026902         4
        11         7         9        28     9        0.000000       -0.010042         1
        11         7         9        28     9      180.000000       13.464784         2
        11         7         9        28     9        0.000000       -0.750737         3
        11         7         9        28     9      180.000000        0.218241         4
        11         7        13        17     9        0.000000        1.276679         1
        11         7        13        17     9      180.000000        2.787503         2
        11         7        13        17     9        0.000000        0.391677         3
        11         7        13        17     9      180.000000        0.052778         4
        11         8        12        20     9        0.000000        0.271047         1
        11         8        12        20     9      180.000000       18.760299         2
        11         8        12        20     9        0.000000        0.275045         3
        11         8        12        20     9      180.000000       -0.665679         4
        12         8        11        19     9        0.000000        0.344077         1
        12         8        11        19     9      180.000000       19.457400         2
        12         8        11        19     9        0.000000        0.328713         3
        12         8        11        19     9      180.000000       -0.753218         4
        12        10         9        28     9        0.000000        0.192952         1
        12        10         9        28     9      180.000000       12.549842         2
        12        10         9        28     9        0.000000       -0.427659         3
        12        10         9        28     9      180.000000        0.163219         4
        12        10        18        16     9        0.000000        3.202602         1
        12        10        18        16     9      180.000000        2.617255         2
        12        10        18        16     9        0.000000        0.770248         3
        12        10        18        16     9      180.000000        0.230797         4
        13         3         4        21     9        0.000000        0.580439         1
        13         3         4        21     9      180.000000        5.396348         2
        13         3         4        21     9        0.000000        0.410653         3
        13         3         4        21     9      180.000000       -0.137323         4
        13         7         9        28     9        0.000000       -0.103236         1
        13         7         9        28     9      180.000000       12.926819         2
        13         7         9        28     9        0.000000       -0.355928         3
        13         7         9        28     9      180.000000        0.209419         4
        13         7        11        19     9        0.000000        0.073424         1
        13         7        11        19     9      180.000000       16.280663         2
        13         7        11        19     9        0.000000        0.299227         3
        13         7        11        19     9      180.000000       -0.845104         4
        14         1        15        17     9        0.000000        0.013480         1
        14         1        15        17     9      180.000000       20.291260         2
        14         1        15        17     9        0.000000        0.725277         3
        14         1        15        17     9      180.000000       -0.574124         4
        14         2         5        23     9        0.000000        0.709806         1
        14         2         5        23     9      180.000000        8.030472         2
        14         2         5        23     9        0.000000        0.150242         3
        14         2         5        23     9      180.000000       -0.018987         4
        14         3         4        21     9        0.000000        1.599363         1
        14         3         4        21     9      180.000000       14.677140         2
        14         3         4        21     9        0.000000        0.689777         3
        14         3         4        21     9      180.000000       -0.769641         4
        14         3        13        17     9        0.000000       -0.225929         1
        14         3        13        17     9      180.000000       13.920906         2
        14         3        13        17     9        0.000000       -0.652966         3
        14         3        13        17     9      180.000000       -0.329735         4
        17        15         6        24     9        0.000000       -0.017722         1
        17        15         6        24     9      180.000000        0.014620         2
        17        15         6        24     9        0.000000        0.043233         3
        17        15         6        24     9      180.000000       -0.010089         4
        17        15         6        25     9        0.000000       -0.017721         1
        17        15         6        25     9      180.000000        0.014621         2
        17        15         6        25     9        0.000000        0.043233         3
        17        15         6        25     9      180.000000       -0.010089         4
        17        15         6        26     9        0.000000       -0.017721         1
        17        15         6        26     9      180.000000        0.014621         2
        17        15         6        26     9        0.000000        0.043233         3
        17        15         6        26     9      180.000000       -0.010089         4
        18        10         9        28     9        0.000000        0.094766         1
        18        10         9        28     9      180.000000       13.325383         2
        18        10         9        28     9        0.000000       -0.103308         3
        18        10         9        28     9      180.000000        0.289726         4
        18        10        12        20     9        0.000000       -0.195078         1
        18        10        12        20     9      180.000000       17.539455         2
        18        10        12        20     9        0.000000       -0.084371         3
        18        10        12        20     9      180.000000       -0.427696         4
        19        11         8        27     9        0.000000        0.121926         1
        19        11         8        27     9      180.000000       14.246097         2
        19        11         8        27     9        0.000000       -0.128840         3
        19        11         8        27     9      180.000000        0.173256         4
        20        12         8        27     9        0.000000        0.140764         1
        20        12         8        27     9      180.000000       13.892992         2
        20        12         8        27     9        0.000000       -0.188330         3
        20        12         8        27     9      180.000000        0.163077         4
        21         4         5        23     9        0.000000        0.458301         1
        21         4         5        23     9      180.000000       11.684635         2
        21         4         5        23     9        0.000000        0.241808         3
        21         4         5        23     9      180.000000        0.209643         4
        22         2         5        23     9        0.000000       -1.436366         1
        22         2         5        23     9      180.000000        0.427839         2
        22         2         5        23     9        0.000000       -0.012228         3
        22         2         5        23     9      180.000000       -0.105662         4

[ dihedrals ] ; impropers
;       ai        aj        ak        al funct           phase               k        pn
        13         3         7        17     4      180.000000        9.495172         2
        13         7        17         3     4      180.000000        9.495172         2
        13        17         3         7     4      180.000000        9.495172         2
        15         1         6        17     4      180.000000       27.893333         2
        15         6        17         1     4      180.000000       27.893333         2
        15        17         1         6     4      180.000000       27.893333         2

[ pairs ]
;       ai        aj funct
         1         4     1
         1         5     1
         1        13     1
         1        22     1
         1        24     1
         1        25     1
         1        26     1
         2        13     1
         2        15     1
         2        21     1
         3         9     1
         3        11     1
         3        15     1
         3        22     1
         3        23     1
         4         7     1
         4        17     1
         4        22     1
         5        13     1
         6        13     1
         6        14     1
         7        12     1
         7        14     1
         7        15     1
         7        18     1
         7        27     1
         8         9     1
         8        13     1
         8        18     1
         9        16     1
         9        17     1
         9        19     1
         9        20     1
        10        11     1
        10        13     1
        10        27     1
        10        29     1
        10        30     1
        10        31     1
        11        17     1
        11        20     1
        11        28     1
        12        16     1
        12        19     1
        12        28     1
        13        19     1
        13        21     1
        13        28     1
        14        17     1
        14        21     1
        14        23     1
        17        24     1
        17        25     1
        17        26     1
        18        20     1
        18        28     1
        19        27     1
        20        27     1
        21        23     1
        22        23     1
