Generated by PDBParser (exclude clash < 1.000 A)
114
    1SOL     OW    1   1.433  -4.285   0.672
    1SOL    HW1    2   1.366  -4.303   0.600
    1SOL    HW2    3   1.390  -4.296   0.761
    2SOL     OW    4   0.468  -1.785   0.278
    2SOL    HW1    5   0.433  -1.879   0.270
    2SOL    HW2    6   0.477  -1.761   0.374
    3SOL     OW    7   1.201  -3.314   1.178
    3SOL    HW1    8   1.195  -3.235   1.118
    3SOL    HW2    9   1.198  -3.285   1.273
    4SOL     OW   10   1.485  -3.128   0.565
    4SOL    HW1   11   1.411  -3.196   0.558
    4SOL    HW2   12   1.468  -3.067   0.642
    5SOL     OW   13   1.342  -2.903  -0.110
    5SOL    HW1   14   1.343  -2.987  -0.056
    5SOL    HW2   15   1.340  -2.824  -0.049
    6SOL     OW   16  -0.649  -2.850   0.759
    6SOL    HW1   17  -0.732  -2.886   0.717
    6SOL    HW2   18  -0.597  -2.925   0.800
    7SOL     OW   19  -0.370  -4.657  -0.897
    7SOL    HW1   20  -0.289  -4.620  -0.941
    7SOL    HW2   21  -0.385  -4.611  -0.810
    8SOL     OW   22  -0.695  -3.405  -1.224
    8SOL    HW1   23  -0.614  -3.376  -1.172
    8SOL    HW2   24  -0.706  -3.347  -1.304
    9SOL     OW   25  -0.846  -6.002   0.657
    9SOL    HW1   26  -0.796  -6.088   0.662
    9SOL    HW2   27  -0.804  -5.943   0.588
   10SOL     OW   28  -0.743  -4.126   1.602
   10SOL    HW1   29  -0.828  -4.145   1.552
   10SOL    HW2   30  -0.749  -4.036   1.646
   11SOL     OW   31  -0.546  -3.547   1.061
   11SOL    HW1   32  -0.515  -3.575   0.970
   11SOL    HW2   33  -0.494  -3.595   1.131
   12SOL     OW   34  -1.623  -3.570  -0.091
   12SOL    HW1   35  -1.669  -3.658  -0.081
   12SOL    HW2   36  -1.652  -3.508  -0.019
   13SOL     OW   37   1.000  -3.378  -1.129
   13SOL    HW1   38   1.019  -3.434  -1.048
   13SOL    HW2   39   0.902  -3.364  -1.138
   14SOL     OW   40  -0.381  -4.772  -0.478
   14SOL    HW1   41  -0.309  -4.817  -0.531
   14SOL    HW2   42  -0.341  -4.731  -0.396
   15SOL     OW   43  -0.463  -2.783  -0.257
   15SOL    HW1   44  -0.369  -2.819  -0.256
   15SOL    HW2   45  -0.495  -2.771  -0.163
   16SOL     OW   46  -1.639  -4.786  -0.488
   16SOL    HW1   47  -1.632  -4.763  -0.391
   16SOL    HW2   48  -1.669  -4.880  -0.499
   17SOL     OW   49   0.237  -3.614  -1.695
   17SOL    HW1   50   0.242  -3.660  -1.595
   17SOL    HW2   51   0.175  -3.676  -1.761
   18SOL     OW   52   0.969  -4.858   0.799
   18SOL    HW1   53   0.969  -4.763   0.769
   18SOL    HW2   54   0.969  -4.861   0.899
   19SOL     OW   55   1.339  -3.903  -0.282
   19SOL    HW1   56   1.392  -3.882  -0.364
   19SOL    HW2   57   1.397  -3.897  -0.201
   20SOL     OW   58  -1.622  -4.617   1.365
   20SOL    HW1   59  -1.643  -4.674   1.285
   20SOL    HW2   60  -1.670  -4.529   1.356
   21SOL     OW   61  -0.691  -3.255   1.002
   21SOL    HW1   62  -0.661  -3.346   1.027
   21SOL    HW2   63  -0.620  -3.209   0.949
   22SOL     OW   64   0.749  -3.999   1.111
   22SOL    HW1   65   0.740  -3.905   1.081
   22SOL    HW2   66   0.749  -4.002   1.211
   23SOL     OW   67   0.759  -3.179  -1.103
   23SOL    HW1   68   0.847  -3.199  -1.060
   23SOL    HW2   69   0.715  -3.102  -1.057
   24SOL     OW   70  -0.417  -3.507  -1.397
   24SOL    HW1   71  -0.498  -3.477  -1.347
   24SOL    HW2   72  -0.345  -3.533  -1.333
   25SOL     OW   73   0.473  -4.611   1.307
   25SOL    HW1   74   0.499  -4.706   1.321
   25SOL    HW2   75   0.378  -4.606   1.276
   26SOL     OW   76   0.645  -3.055  -0.392
   26SOL    HW1   77   0.580  -3.054  -0.469
   26SOL    HW2   78   0.594  -3.054  -0.306
   27SOL     OW   79  -0.849  -3.604  -1.160
   27SOL    HW1   80  -0.790  -3.527  -1.185
   27SOL    HW2   81  -0.797  -3.689  -1.164
   28SOL     OW   82   1.228  -2.891   0.630
   28SOL    HW1   83   1.300  -2.958   0.612
   28SOL    HW2   84   1.177  -2.919   0.712
   29SOL     OW   85   0.146  -2.166  -0.210
   29SOL    HW1   86   0.186  -2.217  -0.287
   29SOL    HW2   87   0.177  -2.206  -0.124
   30SOL     OW   88   0.629  -2.572   0.130
   30SOL    HW1   89   0.626  -2.473   0.177
   30SOL    HW2   90   0.724  -2.622   0.154
   31SOL     OW   91   1.045  -2.781   0.922
   31SOL    HW1   92   1.080  -2.872   0.897
   31SOL    HW2   93   1.042  -2.773   1.022
   32SOL     OW   94   1.039  -3.606   0.868
   32SOL    HW1   95   1.076  -3.579   0.968
   32SOL    HW2   96   0.970  -3.691   0.876
   33SOL     OW   97   0.393  -2.006  -0.100
   33SOL    HW1   98   0.315  -2.057  -0.135
   33SOL    HW2   99   0.392  -2.007   0.001
   34SOL     OW  100   1.861  -3.058  -0.628
   34SOL    HW1  101   1.910  -2.988  -0.559
   34SOL    HW2  102   1.937  -3.115  -0.683
   35SOL     OW  103   1.733  -3.112   0.371
   35SOL    HW1  104   1.655  -3.117   0.433
   35SOL    HW2  105   1.817  -3.106   0.425
   36SOL     OW  106   0.483  -5.199  -0.272
   36SOL    HW1  107   0.546  -5.134  -0.209
   36SOL    HW2  108   0.422  -5.263  -0.208
   37SOL     OW  109  -0.770  -4.216   1.864
   37SOL    HW1  110  -0.761  -4.184   1.769
   37SOL    HW2  111  -0.748  -4.142   1.927
   38SOL     OW  112  -1.075  -4.155   1.896
   38SOL    HW1  113  -0.977  -4.175   1.885
   38SOL    HW2  114  -1.098  -4.151   1.993
    7.0881    7.0881    7.0881
