; ITP file created by ByteFF-ML, 2026-02-21 07:46:10.038279

[ atomtypes ]
;name           bonded.type        at.num        mass        charge   ptype           sigma         epsilon
 p0bf                                  15      0.0000       0.00000       A     3.69341e-01     9.42109e-01
 o1bf                                   8      0.0000       0.00000       A     3.05202e-01     6.05411e-01
 o2bf                                   8      0.0000       0.00000       A     3.05202e-01     6.05411e-01
 o3bf                                   8      0.0000       0.00000       A     3.05202e-01     6.05411e-01
 c4bf                                   6      0.0000       0.00000       A     3.39667e-01     4.49772e-01
 o5bf                                   8      0.0000       0.00000       A     3.24239e-01     3.90247e-01
 c6bf                                   6      0.0000       0.00000       A     3.39758e-01     4.55105e-01
 o7bf                                   8      0.0000       0.00000       A     3.24061e-01     3.85329e-01
 c8bf                                   6      0.0000       0.00000       A     3.39365e-01     4.47667e-01
 o9bf                                   8      0.0000       0.00000       A     3.24416e-01     3.84800e-01
 c10bf                                  6      0.0000       0.00000       A     3.39707e-01     4.49677e-01
 o11bf                                  8      0.0000       0.00000       A     3.24172e-01     3.84975e-01
 c12bf                                  6      0.0000       0.00000       A     3.39675e-01     4.53694e-01
 o13bf                                  8      0.0000       0.00000       A     3.15643e-01     3.07213e-01
 c14bf                                  6      0.0000       0.00000       A     3.39588e-01     4.47610e-01
 o15bf                                  8      0.0000       0.00000       A     3.15641e-01     3.19037e-01
 h16bf                                  1      0.0000       0.00000       A     5.37569e-02     2.03403e-02
 h17bf                                  1      0.0000       0.00000       A     5.34299e-02     1.97115e-02
 h18bf                                  1      0.0000       0.00000       A     5.42540e-02     2.05749e-02
 h19bf                                  1      0.0000       0.00000       A     5.39846e-02     2.00945e-02
 h20bf                                  1      0.0000       0.00000       A     2.42495e-01     8.86202e-02
 h21bf                                  1      0.0000       0.00000       A     2.42417e-01     8.74758e-02
 h22bf                                  1      0.0000       0.00000       A     2.42332e-01     8.73337e-02
 h23bf                                  1      0.0000       0.00000       A     2.41812e-01     8.78716e-02
 h24bf                                  1      0.0000       0.00000       A     2.41812e-01     8.78716e-02
 h25bf                                  1      0.0000       0.00000       A     2.42325e-01     8.61255e-02
 h26bf                                  1      0.0000       0.00000       A     2.42325e-01     8.61255e-02

[ moleculetype ]
;name             nrexcl
 F6P_1                 3

[ atoms ]
;       nr            type      resi   res      atom      cgnr      charge          mass ; qtot
         1            p0bf         1   UNL        p0         1     1.23257       30.9740 ; qtot    1.233
         2            o1bf         1   UNL        o1         2    -0.93714       15.9990 ; qtot    0.295
         3            o2bf         1   UNL        o2         3    -0.93714       15.9990 ; qtot   -0.642
         4            o3bf         1   UNL        o3         4    -0.93714       15.9990 ; qtot   -1.579
         5            c4bf         1   UNL        c4         5     0.13982       12.0110 ; qtot   -1.439
         6            o5bf         1   UNL        o5         6    -0.68679       15.9990 ; qtot   -2.126
         7            c6bf         1   UNL        c6         7     0.34551       12.0110 ; qtot   -1.780
         8            o7bf         1   UNL        o7         8    -0.67571       15.9990 ; qtot   -2.456
         9            c8bf         1   UNL        c8         9     0.12419       12.0110 ; qtot   -2.332
        10            o9bf         1   UNL        o9        10    -0.69606       15.9990 ; qtot   -3.028
        11           c10bf         1   UNL       c10        11     0.13458       12.0110 ; qtot   -2.893
        12           o11bf         1   UNL       o11        12    -0.69420       15.9990 ; qtot   -3.588
        13           c12bf         1   UNL       c12        13     0.12659       12.0110 ; qtot   -3.461
        14           o13bf         1   UNL       o13        14    -0.45999       15.9990 ; qtot   -3.921
        15           c14bf         1   UNL       c14        15     0.20037       12.0110 ; qtot   -3.721
        16           o15bf         1   UNL       o15        16    -0.61108       15.9990 ; qtot   -4.332
        17           h16bf         1   UNL       h16        17     0.47720        1.0080 ; qtot   -3.854
        18           h17bf         1   UNL       h17        18     0.48695        1.0080 ; qtot   -3.367
        19           h18bf         1   UNL       h18        19     0.50697        1.0080 ; qtot   -2.861
        20           h19bf         1   UNL       h19        20     0.49811        1.0080 ; qtot   -2.362
        21           h20bf         1   UNL       h20        21     0.07790        1.0080 ; qtot   -2.284
        22           h21bf         1   UNL       h21        22     0.07254        1.0080 ; qtot   -2.212
        23           h22bf         1   UNL       h22        23     0.07291        1.0080 ; qtot   -2.139
        24           h23bf         1   UNL       h23        24     0.05745        1.0080 ; qtot   -2.082
        25           h24bf         1   UNL       h24        25     0.05745        1.0080 ; qtot   -2.024
        26           h25bf         1   UNL       h25        26     0.01207        1.0080 ; qtot   -2.012
        27           h26bf         1   UNL       h26        27     0.01207        1.0080 ; qtot   -2.000

[ bonds ]
;       ai        aj funct               r               k
         1         2     1        0.154069   382008.265674
         1         3     1        0.154069   382008.265674
         1         4     1        0.154069   382008.265674
         1        16     1        0.182416    43858.545697
         5         6     1        0.142473   218124.785596
         5         7     1        0.153155   176273.000220
         5        24     1        0.109587   293472.971680
         5        25     1        0.109587   293472.971680
         6        17     1        0.097175   464423.080664
         7         8     1        0.141704   191954.406982
         7         9     1        0.155147   141785.440454
         7        14     1        0.142472   159046.662183
         8        18     1        0.097427   454802.230078
         9        10     1        0.141970   216676.601660
         9        11     1        0.153830   158746.269165
         9        21     1        0.109514   297265.972998
        10        19     1        0.097418   453017.952246
        11        12     1        0.142386   213213.450415
        11        13     1        0.154109   156959.220557
        11        22     1        0.109527   296777.575781
        12        20     1        0.097279   459085.722656
        13        14     1        0.144682   160311.693970
        13        15     1        0.152729   180491.564697
        13        23     1        0.109576   293853.321387
        15        16     1        0.138853   237849.674414
        15        26     1        0.109985   278506.540137
        15        27     1        0.109985   278506.540137

[ angles ]
;       ai        aj        ak funct           theta             cth
         1        16        15     1      115.075928      517.728470
         2         1         3     1      115.767227      658.946227
         2         1         4     1      115.767227      658.946227
         2         1        16     1      101.263840      584.603169
         3         1         4     1      115.767227      658.946227
         3         1        16     1      101.263840      584.603169
         4         1        16     1      101.263840      584.603169
         5         6        17     1      106.964096      583.321844
         5         7         8     1      108.831947      568.484784
         5         7         9     1      115.127243      562.709567
         5         7        14     1      108.477234      560.483497
         6         5         7     1      110.616211      571.327064
         6         5        24     1      109.784157      473.059214
         6         5        25     1      109.784157      473.059214
         7         5        24     1      108.515549      460.354725
         7         5        25     1      108.515549      460.354725
         7         8        18     1      106.744606      583.421758
         7         9        10     1      112.064331      540.716242
         7         9        11     1      102.637863      605.017343
         7         9        21     1      109.137939      437.019170
         7        14        13     1      109.893265      556.972847
         8         7         9     1      108.443565      554.132099
         8         7        14     1      109.869705      680.792969
         9         7        14     1      105.076767      387.923599
         9        10        19     1      106.937096      573.783543
         9        11        12     1      111.284142      587.448578
         9        11        13     1      102.410751      586.729899
         9        11        22     1      109.638733      445.092568
        10         9        11     1      111.775917      590.577001
        10         9        21     1      109.490746      452.607277
        11         9        21     1      110.034485      444.314803
        11        12        20     1      107.265038      576.916307
        11        13        14     1      104.973534      434.044544
        11        13        15     1      114.274368      607.839704
        11        13        23     1      109.519974      456.997202
        12        11        13     1      112.718224      572.056021
        12        11        22     1      109.536537      447.757621
        13        11        22     1      110.331688      426.114314
        13        15        16     1      110.512833      542.889961
        13        15        26     1      108.852699      486.386489
        13        15        27     1      108.852699      486.386489
        14        13        15     1      110.766052      590.868252
        14        13        23     1      108.050308      450.433942
        15        13        23     1      109.012474      476.598881
        16        15        26     1      110.683754      431.143113
        16        15        27     1      110.683754      431.143113
        24         5        25     1      108.549088      338.159338
        26        15        27     1      108.136436      338.448322

[ dihedrals ] ; propers for gromacs 4.5 or higher, use funct 9
;       ai        aj        ak        al funct           phase               k        pn
         1        16        15        13     9        0.000000      -10.136118         1
         1        16        15        13     9      180.000000       -0.777005         2
         1        16        15        13     9        0.000000       -0.083446         3
         1        16        15        13     9      180.000000        0.029859         4
         1        16        15        26     9        0.000000        2.148198         1
         1        16        15        26     9      180.000000       -0.341133         2
         1        16        15        26     9        0.000000       -0.402349         3
         1        16        15        26     9      180.000000        0.052125         4
         1        16        15        27     9        0.000000        2.148198         1
         1        16        15        27     9      180.000000       -0.341133         2
         1        16        15        27     9        0.000000       -0.402349         3
         1        16        15        27     9      180.000000        0.052125         4
         2         1        16        15     9        0.000000        2.637423         1
         2         1        16        15     9      180.000000        2.163290         2
         2         1        16        15     9        0.000000       -0.888985         3
         2         1        16        15     9      180.000000       -0.156241         4
         3         1        16        15     9        0.000000        2.637423         1
         3         1        16        15     9      180.000000        2.163290         2
         3         1        16        15     9        0.000000       -0.888985         3
         3         1        16        15     9      180.000000       -0.156241         4
         4         1        16        15     9        0.000000        2.637423         1
         4         1        16        15     9      180.000000        2.163290         2
         4         1        16        15     9        0.000000       -0.888985         3
         4         1        16        15     9      180.000000       -0.156241         4
         5         7         8        18     9        0.000000        3.027492         1
         5         7         8        18     9      180.000000       -2.273742         2
         5         7         8        18     9        0.000000        1.388207         3
         5         7         8        18     9      180.000000        0.221581         4
         5         7         9        10     9        0.000000        0.960577         1
         5         7         9        10     9      180.000000       -0.207447         2
         5         7         9        10     9        0.000000        0.628780         3
         5         7         9        10     9      180.000000        0.078959         4
         5         7         9        11     9        0.000000        0.960637         1
         5         7         9        11     9      180.000000       -0.649798         2
         5         7         9        11     9        0.000000        0.031741         3
         5         7         9        11     9      180.000000        0.119348         4
         5         7         9        21     9        0.000000        0.067883         1
         5         7         9        21     9      180.000000       -0.073790         2
         5         7         9        21     9        0.000000        0.416714         3
         5         7         9        21     9      180.000000        0.000111         4
         5         7        14        13     9        0.000000        1.766006         1
         5         7        14        13     9      180.000000       -0.093476         2
         5         7        14        13     9        0.000000        0.439514         3
         5         7        14        13     9      180.000000        0.393983         4
         6         5         7         8     9        0.000000        3.469595         1
         6         5         7         8     9      180.000000       -0.439164         2
         6         5         7         8     9        0.000000        1.053956         3
         6         5         7         8     9      180.000000       -0.152354         4
         6         5         7         9     9        0.000000        0.092134         1
         6         5         7         9     9      180.000000       -0.423593         2
         6         5         7         9     9        0.000000        0.602671         3
         6         5         7         9     9      180.000000        0.022082         4
         6         5         7        14     9        0.000000        0.407359         1
         6         5         7        14     9      180.000000       -1.224140         2
         6         5         7        14     9        0.000000        0.813263         3
         6         5         7        14     9      180.000000       -0.063309         4
         7         5         6        17     9        0.000000        5.991269         1
         7         5         6        17     9      180.000000       -4.374261         2
         7         5         6        17     9        0.000000        1.311309         3
         7         5         6        17     9      180.000000        0.132123         4
         7         9        10        19     9        0.000000        7.000064         1
         7         9        10        19     9      180.000000       -6.937825         2
         7         9        10        19     9        0.000000        0.918580         3
         7         9        10        19     9      180.000000        0.100207         4
         7         9        11        12     9        0.000000       -3.044599         1
         7         9        11        12     9      180.000000       -0.000879         2
         7         9        11        12     9        0.000000        0.111302         3
         7         9        11        12     9      180.000000        0.238308         4
         7         9        11        13     9        0.000000       -1.606682         1
         7         9        11        13     9      180.000000        7.929140         2
         7         9        11        13     9        0.000000       -0.584696         3
         7         9        11        13     9      180.000000       -1.845087         4
         7         9        11        22     9        0.000000       -0.089870         1
         7         9        11        22     9      180.000000        0.232896         2
         7         9        11        22     9        0.000000        0.003866         3
         7         9        11        22     9      180.000000        0.161495         4
         7        14        13        11     9        0.000000       -1.502746         1
         7        14        13        11     9      180.000000       -0.326725         2
         7        14        13        11     9        0.000000        0.075230         3
         7        14        13        11     9      180.000000       -0.481153         4
         7        14        13        15     9        0.000000        3.076387         1
         7        14        13        15     9      180.000000       -1.271156         2
         7        14        13        15     9        0.000000        0.106219         3
         7        14        13        15     9      180.000000        0.192131         4
         7        14        13        23     9        0.000000        0.448350         1
         7        14        13        23     9      180.000000       -0.485428         2
         7        14        13        23     9        0.000000        0.194514         3
         7        14        13        23     9      180.000000        0.059660         4
         8         7         5        24     9        0.000000        0.023448         1
         8         7         5        24     9      180.000000        0.033486         2
         8         7         5        24     9        0.000000        0.798599         3
         8         7         5        24     9      180.000000        0.042359         4
         8         7         5        25     9        0.000000        0.023448         1
         8         7         5        25     9      180.000000        0.033486         2
         8         7         5        25     9        0.000000        0.798599         3
         8         7         5        25     9      180.000000        0.042359         4
         8         7         9        10     9        0.000000        4.813748         1
         8         7         9        10     9      180.000000       -0.854893         2
         8         7         9        10     9        0.000000        1.006665         3
         8         7         9        10     9      180.000000       -0.270042         4
         8         7         9        11     9        0.000000        0.507085         1
         8         7         9        11     9      180.000000       -0.563131         2
         8         7         9        11     9        0.000000        0.391462         3
         8         7         9        11     9      180.000000        0.251780         4
         8         7         9        21     9        0.000000        0.017802         1
         8         7         9        21     9      180.000000       -0.176306         2
         8         7         9        21     9        0.000000        0.611841         3
         8         7         9        21     9      180.000000       -0.080834         4
         8         7        14        13     9        0.000000       -0.972942         1
         8         7        14        13     9      180.000000       -1.336424         2
         8         7        14        13     9        0.000000        0.615590         3
         8         7        14        13     9      180.000000        0.357028         4
         9         7         5        24     9        0.000000        0.037567         1
         9         7         5        24     9      180.000000        0.055132         2
         9         7         5        24     9        0.000000        0.550824         3
         9         7         5        24     9      180.000000        0.009091         4
         9         7         5        25     9        0.000000        0.037567         1
         9         7         5        25     9      180.000000        0.055132         2
         9         7         5        25     9        0.000000        0.550824         3
         9         7         5        25     9      180.000000        0.009091         4
         9         7         8        18     9        0.000000        1.873818         1
         9         7         8        18     9      180.000000       -2.407042         2
         9         7         8        18     9        0.000000        1.144959         3
         9         7         8        18     9      180.000000       -0.115281         4
         9         7        14        13     9        0.000000        0.852467         1
         9         7        14        13     9      180.000000        0.327471         2
         9         7        14        13     9        0.000000       -0.016988         3
         9         7        14        13     9      180.000000       -0.565948         4
         9        11        12        20     9        0.000000        6.080664         1
         9        11        12        20     9      180.000000       -6.204661         2
         9        11        12        20     9        0.000000        0.885470         3
         9        11        12        20     9      180.000000        0.232078         4
         9        11        13        14     9        0.000000       -1.927937         1
         9        11        13        14     9      180.000000        3.829155         2
         9        11        13        14     9        0.000000       -0.102803         3
         9        11        13        14     9      180.000000       -1.694560         4
         9        11        13        15     9        0.000000       -0.522453         1
         9        11        13        15     9      180.000000        0.200679         2
         9        11        13        15     9        0.000000        0.015507         3
         9        11        13        15     9      180.000000       -0.049955         4
         9        11        13        23     9        0.000000        0.815983         1
         9        11        13        23     9      180.000000       -0.316826         2
         9        11        13        23     9        0.000000        0.141132         3
         9        11        13        23     9      180.000000        0.174769         4
        10         9         7        14     9        0.000000       -0.067510         1
        10         9         7        14     9      180.000000       -1.032557         2
        10         9         7        14     9        0.000000        0.673661         3
        10         9         7        14     9      180.000000        0.043889         4
        10         9        11        12     9        0.000000        4.945682         1
        10         9        11        12     9      180.000000       -1.225311         2
        10         9        11        12     9        0.000000        0.802975         3
        10         9        11        12     9      180.000000       -0.146046         4
        10         9        11        13     9        0.000000       -2.931468         1
        10         9        11        13     9      180.000000        1.144222         2
        10         9        11        13     9        0.000000        0.139941         3
        10         9        11        13     9      180.000000        0.135918         4
        10         9        11        22     9        0.000000        0.472600         1
        10         9        11        22     9      180.000000        0.063284         2
        10         9        11        22     9        0.000000        0.555090         3
        10         9        11        22     9      180.000000       -0.001414         4
        11         9         7        14     9        0.000000       -1.743609         1
        11         9         7        14     9      180.000000        2.508664         2
        11         9         7        14     9        0.000000       -0.143093         3
        11         9         7        14     9      180.000000       -0.969155         4
        11         9        10        19     9        0.000000        5.958481         1
        11         9        10        19     9      180.000000       -6.600398         2
        11         9        10        19     9        0.000000        0.777929         3
        11         9        10        19     9      180.000000        0.203179         4
        11        13        15        16     9        0.000000        0.237935         1
        11        13        15        16     9      180.000000       -0.063828         2
        11        13        15        16     9        0.000000        0.471461         3
        11        13        15        16     9      180.000000        0.039904         4
        11        13        15        26     9        0.000000       -0.018424         1
        11        13        15        26     9      180.000000       -0.040011         2
        11        13        15        26     9        0.000000        0.486551         3
        11        13        15        26     9      180.000000        0.024632         4
        11        13        15        27     9        0.000000       -0.018424         1
        11        13        15        27     9      180.000000       -0.040011         2
        11        13        15        27     9        0.000000        0.486551         3
        11        13        15        27     9      180.000000        0.024632         4
        12        11         9        21     9        0.000000        0.455943         1
        12        11         9        21     9      180.000000       -0.049763         2
        12        11         9        21     9        0.000000        0.552320         3
        12        11         9        21     9      180.000000       -0.033023         4
        12        11        13        14     9        0.000000        0.211637         1
        12        11        13        14     9      180.000000       -1.378476         2
        12        11        13        14     9        0.000000        0.667917         3
        12        11        13        14     9      180.000000        0.104377         4
        12        11        13        15     9        0.000000        0.238668         1
        12        11        13        15     9      180.000000        0.052994         2
        12        11        13        15     9        0.000000        0.420072         3
        12        11        13        15     9      180.000000        0.132891         4
        12        11        13        23     9        0.000000        0.634433         1
        12        11        13        23     9      180.000000       -0.093521         2
        12        11        13        23     9        0.000000        0.698674         3
        12        11        13        23     9      180.000000       -0.054323         4
        13        11         9        21     9        0.000000       -0.090804         1
        13        11         9        21     9      180.000000        0.303415         2
        13        11         9        21     9        0.000000        0.037359         3
        13        11         9        21     9      180.000000        0.137612         4
        13        11        12        20     9        0.000000        7.933609         1
        13        11        12        20     9      180.000000       -5.489726         2
        13        11        12        20     9        0.000000        1.138435         3
        13        11        12        20     9      180.000000        0.316567         4
        14         7         5        24     9        0.000000       -0.065120         1
        14         7         5        24     9      180.000000        0.172293         2
        14         7         5        24     9        0.000000        0.709546         3
        14         7         5        24     9      180.000000       -0.019392         4
        14         7         5        25     9        0.000000       -0.065120         1
        14         7         5        25     9      180.000000        0.172293         2
        14         7         5        25     9        0.000000        0.709546         3
        14         7         5        25     9      180.000000       -0.019392         4
        14         7         8        18     9        0.000000        4.332679         1
        14         7         8        18     9      180.000000       -3.924105         2
        14         7         8        18     9        0.000000        1.311825         3
        14         7         8        18     9      180.000000       -0.163218         4
        14         7         9        21     9        0.000000        0.084159         1
        14         7         9        21     9      180.000000        0.358400         2
        14         7         9        21     9        0.000000        0.358037         3
        14         7         9        21     9      180.000000       -0.085037         4
        14        13        11        22     9        0.000000        0.228408         1
        14        13        11        22     9      180.000000        0.217080         2
        14        13        11        22     9        0.000000        0.408421         3
        14        13        11        22     9      180.000000       -0.063884         4
        14        13        15        16     9        0.000000       -3.314303         1
        14        13        15        16     9      180.000000       -1.143242         2
        14        13        15        16     9        0.000000        0.558695         3
        14        13        15        16     9      180.000000       -0.056385         4
        14        13        15        26     9        0.000000        0.289186         1
        14        13        15        26     9      180.000000        0.222998         2
        14        13        15        26     9        0.000000        0.675781         3
        14        13        15        26     9      180.000000       -0.009551         4
        14        13        15        27     9        0.000000        0.289186         1
        14        13        15        27     9      180.000000        0.222998         2
        14        13        15        27     9        0.000000        0.675781         3
        14        13        15        27     9      180.000000       -0.009551         4
        15        13        11        22     9        0.000000        0.733464         1
        15        13        11        22     9      180.000000       -0.125035         2
        15        13        11        22     9        0.000000        0.355993         3
        15        13        11        22     9      180.000000        0.011939         4
        16        15        13        23     9        0.000000        2.108793         1
        16        15        13        23     9      180.000000        1.277024         2
        16        15        13        23     9        0.000000        0.631872         3
        16        15        13        23     9      180.000000        0.035234         4
        17         6         5        24     9        0.000000       -0.155964         1
        17         6         5        24     9      180.000000       -0.145484         2
        17         6         5        24     9        0.000000        0.881757         3
        17         6         5        24     9      180.000000        0.098971         4
        17         6         5        25     9        0.000000       -0.155964         1
        17         6         5        25     9      180.000000       -0.145484         2
        17         6         5        25     9        0.000000        0.881757         3
        17         6         5        25     9      180.000000        0.098971         4
        19        10         9        21     9        0.000000        2.362399         1
        19        10         9        21     9      180.000000       -2.547269         2
        19        10         9        21     9        0.000000        0.688858         3
        19        10         9        21     9      180.000000        0.433404         4
        20        12        11        22     9        0.000000        2.497042         1
        20        12        11        22     9      180.000000       -2.436050         2
        20        12        11        22     9        0.000000        0.779362         3
        20        12        11        22     9      180.000000        0.444028         4
        21         9        11        22     9        0.000000        0.043096         1
        21         9        11        22     9      180.000000        0.069417         2
        21         9        11        22     9        0.000000        0.514015         3
        21         9        11        22     9      180.000000       -0.037228         4
        22        11        13        23     9        0.000000        0.117446         1
        22        11        13        23     9      180.000000        0.029955         2
        22        11        13        23     9        0.000000        0.531150         3
        22        11        13        23     9      180.000000       -0.052285         4
        23        13        15        26     9        0.000000       -0.289512         1
        23        13        15        26     9      180.000000        0.344443         2
        23        13        15        26     9        0.000000        0.763549         3
        23        13        15        26     9      180.000000        0.009056         4
        23        13        15        27     9        0.000000       -0.289512         1
        23        13        15        27     9      180.000000        0.344443         2
        23        13        15        27     9        0.000000        0.763549         3
        23        13        15        27     9      180.000000        0.009056         4

[ pairs ]
;       ai        aj funct
         1        13     1
         1        26     1
         1        27     1
         2        15     1
         3        15     1
         4        15     1
         5        10     1
         5        11     1
         5        13     1
         5        18     1
         5        21     1
         6         8     1
         6         9     1
         6        14     1
         7        12     1
         7        15     1
         7        17     1
         7        19     1
         7        22     1
         7        23     1
         8        10     1
         8        11     1
         8        13     1
         8        21     1
         8        24     1
         8        25     1
         9        15     1
         9        18     1
         9        20     1
         9        23     1
         9        24     1
         9        25     1
        10        12     1
        10        13     1
        10        14     1
        10        22     1
        11        16     1
        11        19     1
        11        26     1
        11        27     1
        12        14     1
        12        15     1
        12        21     1
        12        23     1
        13        20     1
        13        21     1
        14        16     1
        14        18     1
        14        21     1
        14        22     1
        14        24     1
        14        25     1
        14        26     1
        14        27     1
        15        22     1
        16        23     1
        17        24     1
        17        25     1
        19        21     1
        20        22     1
        21        22     1
        22        23     1
        23        26     1
        23        27     1
