; ITP file created by ByteFF-ML, 2026-02-21 07:46:12.044746

[ atomtypes ]
;name           bonded.type        at.num        mass        charge   ptype           sigma         epsilon
 c0bf                                   6      0.0000       0.00000       A     3.40033e-01     4.49536e-01
 c1bf                                   6      0.0000       0.00000       A     3.31521e-01     4.13634e-01
 o2bf                                   8      0.0000       0.00000       A     3.04525e-01     6.10347e-01
 o3bf                                   8      0.0000       0.00000       A     3.04525e-01     6.10347e-01
 c4bf                                   6      0.0000       0.00000       A     3.39780e-01     4.61422e-01
 c5bf                                   6      0.0000       0.00000       A     3.31749e-01     4.13198e-01
 o6bf                                   8      0.0000       0.00000       A     3.04761e-01     6.09742e-01
 o7bf                                   8      0.0000       0.00000       A     3.04761e-01     6.09742e-01
 c8bf                                   6      0.0000       0.00000       A     3.40033e-01     4.49536e-01
 c9bf                                   6      0.0000       0.00000       A     3.31521e-01     4.13634e-01
 o10bf                                  8      0.0000       0.00000       A     3.04525e-01     6.10347e-01
 o11bf                                  8      0.0000       0.00000       A     3.04525e-01     6.10347e-01
 o12bf                                  8      0.0000       0.00000       A     3.23328e-01     3.87984e-01
 h13bf                                  1      0.0000       0.00000       A     2.59690e-01     8.76625e-02
 h14bf                                  1      0.0000       0.00000       A     2.59690e-01     8.76625e-02
 h15bf                                  1      0.0000       0.00000       A     2.59690e-01     8.76625e-02
 h16bf                                  1      0.0000       0.00000       A     2.59690e-01     8.76625e-02
 h17bf                                  1      0.0000       0.00000       A     5.35762e-02     2.23976e-02

[ moleculetype ]
;name             nrexcl
 FLC_2                 3

[ atoms ]
;       nr            type      resi   res      atom      cgnr      charge          mass ; qtot
         1            c0bf         1   UNL        c0         1    -0.22748       12.0110 ; qtot   -0.227
         2            c1bf         1   UNL        c1         2     0.71614       12.0110 ; qtot    0.489
         3            o2bf         1   UNL        o2         3    -0.76053       15.9990 ; qtot   -0.272
         4            o3bf         1   UNL        o3         4    -0.76053       15.9990 ; qtot   -1.032
         5            c4bf         1   UNL        c4         5     0.06541       12.0110 ; qtot   -0.967
         6            c5bf         1   UNL        c5         6     0.71802       12.0110 ; qtot   -0.249
         7            o6bf         1   UNL        o6         7    -0.75892       15.9990 ; qtot   -1.008
         8            o7bf         1   UNL        o7         8    -0.75892       15.9990 ; qtot   -1.767
         9            c8bf         1   UNL        c8         9    -0.22748       12.0110 ; qtot   -1.994
        10            c9bf         1   UNL        c9        10     0.71614       12.0110 ; qtot   -1.278
        11           o10bf         1   UNL       o10        11    -0.76053       15.9990 ; qtot   -2.039
        12           o11bf         1   UNL       o11        12    -0.76053       15.9990 ; qtot   -2.799
        13           o12bf         1   UNL       o12        13    -0.75315       15.9990 ; qtot   -3.552
        14           h13bf         1   UNL       h13        14     0.01914        1.0080 ; qtot   -3.533
        15           h14bf         1   UNL       h14        15     0.01914        1.0080 ; qtot   -3.514
        16           h15bf         1   UNL       h15        16     0.01914        1.0080 ; qtot   -3.495
        17           h16bf         1   UNL       h16        17     0.01914        1.0080 ; qtot   -3.476
        18           h17bf         1   UNL       h17        18     0.47580        1.0080 ; qtot   -3.000

[ bonds ]
;       ai        aj funct               r               k
         1         2     1        0.156211   116028.852393
         1         5     1        0.154382   151642.598682
         1        14     1        0.109760   291694.465234
         1        15     1        0.109760   291694.465234
         2         3     1        0.126798   462761.125586
         2         4     1        0.126798   462761.125586
         5         6     1        0.158461   100439.902734
         5         9     1        0.154382   151642.598682
         5        13     1        0.144403   165580.752979
         6         7     1        0.126945   460092.344434
         6         8     1        0.126945   460092.344434
         9        10     1        0.156211   116028.877930
         9        16     1        0.109760   291694.465234
         9        17     1        0.109760   291694.465234
        10        11     1        0.126798   462761.125586
        10        12     1        0.126798   462761.125586
        13        18     1        0.100714   300824.032910

[ angles ]
;       ai        aj        ak funct           theta             cth
         1         2         3     1      115.835365      426.102056
         1         2         4     1      115.835365      426.102056
         1         5         6     1      110.673508      595.350142
         1         5         9     1      111.064041      529.442310
         1         5        13     1      108.930138      611.489276
         2         1         5     1      119.457130      629.225884
         2         1        14     1      107.923317      510.372729
         2         1        15     1      107.923317      510.372729
         3         2         4     1      127.641968      745.351228
         5         1        14     1      107.836449      455.587394
         5         1        15     1      107.836449      455.587330
         5         6         7     1      116.079910      336.880535
         5         6         8     1      116.079910      336.880535
         5         9        10     1      119.457130      629.225884
         5         9        16     1      107.836449      455.587330
         5         9        17     1      107.836449      455.587394
         5        13        18     1       98.851189      528.297226
         6         5         9     1      110.673523      595.350142
         6         5        13     1      107.295433      534.084223
         7         6         8     1      127.263611      752.275871
         9         5        13     1      108.930138      611.489276
         9        10        11     1      115.835365      426.102056
         9        10        12     1      115.835365      426.102056
        10         9        16     1      107.923317      510.372729
        10         9        17     1      107.923317      510.372729
        11        10        12     1      127.641968      745.351292
        14         1        15     1      107.693336      352.647945
        16         9        17     1      107.693336      352.647945

[ dihedrals ] ; propers for gromacs 4.5 or higher, use funct 9
;       ai        aj        ak        al funct           phase               k        pn
         1         5         6         7     9        0.000000       -3.434845         1
         1         5         6         7     9      180.000000        1.760549         2
         1         5         6         7     9        0.000000        0.115042         3
         1         5         6         7     9      180.000000       -0.303003         4
         1         5         6         8     9        0.000000       -3.434845         1
         1         5         6         8     9      180.000000        1.760549         2
         1         5         6         8     9        0.000000        0.115042         3
         1         5         6         8     9      180.000000       -0.303003         4
         1         5         9        10     9        0.000000       -1.158564         1
         1         5         9        10     9      180.000000       -0.579097         2
         1         5         9        10     9        0.000000        0.546256         3
         1         5         9        10     9      180.000000       -0.090392         4
         1         5         9        16     9        0.000000       -0.145765         1
         1         5         9        16     9      180.000000        0.098817         2
         1         5         9        16     9        0.000000        0.606914         3
         1         5         9        16     9      180.000000        0.095965         4
         1         5         9        17     9        0.000000       -0.145765         1
         1         5         9        17     9      180.000000        0.098817         2
         1         5         9        17     9        0.000000        0.606914         3
         1         5         9        17     9      180.000000        0.095965         4
         1         5        13        18     9        0.000000        1.961823         1
         1         5        13        18     9      180.000000        1.303837         2
         1         5        13        18     9        0.000000        0.780069         3
         1         5        13        18     9      180.000000        0.340224         4
         2         1         5         6     9        0.000000       15.293297         1
         2         1         5         6     9      180.000000       -1.359686         2
         2         1         5         6     9        0.000000        0.380561         3
         2         1         5         6     9      180.000000        0.508456         4
         2         1         5         9     9        0.000000       -1.158564         1
         2         1         5         9     9      180.000000       -0.579097         2
         2         1         5         9     9        0.000000        0.546256         3
         2         1         5         9     9      180.000000       -0.090392         4
         2         1         5        13     9        0.000000       -2.722523         1
         2         1         5        13     9      180.000000       -1.507972         2
         2         1         5        13     9        0.000000        0.720508         3
         2         1         5        13     9      180.000000        0.380208         4
         3         2         1         5     9        0.000000       -7.117751         1
         3         2         1         5     9      180.000000        2.181720         2
         3         2         1         5     9        0.000000       -0.232928         3
         3         2         1         5     9      180.000000       -0.352136         4
         3         2         1        14     9        0.000000        0.506184         1
         3         2         1        14     9      180.000000        0.014164         2
         3         2         1        14     9        0.000000        0.057276         3
         3         2         1        14     9      180.000000       -0.034973         4
         3         2         1        15     9        0.000000        0.506182         1
         3         2         1        15     9      180.000000        0.014164         2
         3         2         1        15     9        0.000000        0.057275         3
         3         2         1        15     9      180.000000       -0.034973         4
         4         2         1         5     9        0.000000       -7.117751         1
         4         2         1         5     9      180.000000        2.181719         2
         4         2         1         5     9        0.000000       -0.232928         3
         4         2         1         5     9      180.000000       -0.352136         4
         4         2         1        14     9        0.000000        0.506184         1
         4         2         1        14     9      180.000000        0.014164         2
         4         2         1        14     9        0.000000        0.057276         3
         4         2         1        14     9      180.000000       -0.034973         4
         4         2         1        15     9        0.000000        0.506182         1
         4         2         1        15     9      180.000000        0.014164         2
         4         2         1        15     9        0.000000        0.057275         3
         4         2         1        15     9      180.000000       -0.034973         4
         5         9        10        11     9        0.000000       -7.117751         1
         5         9        10        11     9      180.000000        2.181720         2
         5         9        10        11     9        0.000000       -0.232928         3
         5         9        10        11     9      180.000000       -0.352137         4
         5         9        10        12     9        0.000000       -7.117751         1
         5         9        10        12     9      180.000000        2.181720         2
         5         9        10        12     9        0.000000       -0.232928         3
         5         9        10        12     9      180.000000       -0.352137         4
         6         5         1        14     9        0.000000       -0.228861         1
         6         5         1        14     9      180.000000       -0.326881         2
         6         5         1        14     9        0.000000        0.580472         3
         6         5         1        14     9      180.000000        0.007472         4
         6         5         1        15     9        0.000000       -0.228861         1
         6         5         1        15     9      180.000000       -0.326881         2
         6         5         1        15     9        0.000000        0.580472         3
         6         5         1        15     9      180.000000        0.007472         4
         6         5         9        10     9        0.000000       15.293297         1
         6         5         9        10     9      180.000000       -1.359684         2
         6         5         9        10     9        0.000000        0.380560         3
         6         5         9        10     9      180.000000        0.508456         4
         6         5         9        16     9        0.000000       -0.228860         1
         6         5         9        16     9      180.000000       -0.326881         2
         6         5         9        16     9        0.000000        0.580472         3
         6         5         9        16     9      180.000000        0.007472         4
         6         5         9        17     9        0.000000       -0.228860         1
         6         5         9        17     9      180.000000       -0.326881         2
         6         5         9        17     9        0.000000        0.580472         3
         6         5         9        17     9      180.000000        0.007472         4
         6         5        13        18     9        0.000000       -1.023215         1
         6         5        13        18     9      180.000000        0.236603         2
         6         5        13        18     9        0.000000        0.651730         3
         6         5        13        18     9      180.000000        0.312824         4
         7         6         5         9     9        0.000000       -3.434846         1
         7         6         5         9     9      180.000000        1.760548         2
         7         6         5         9     9        0.000000        0.115041         3
         7         6         5         9     9      180.000000       -0.303003         4
         7         6         5        13     9        0.000000        8.790808         1
         7         6         5        13     9      180.000000        2.794261         2
         7         6         5        13     9        0.000000        0.801352         3
         7         6         5        13     9      180.000000        0.418797         4
         8         6         5         9     9        0.000000       -3.434846         1
         8         6         5         9     9      180.000000        1.760549         2
         8         6         5         9     9        0.000000        0.115042         3
         8         6         5         9     9      180.000000       -0.303004         4
         8         6         5        13     9        0.000000        8.790809         1
         8         6         5        13     9      180.000000        2.794260         2
         8         6         5        13     9        0.000000        0.801352         3
         8         6         5        13     9      180.000000        0.418796         4
         9         5         1        14     9        0.000000       -0.145765         1
         9         5         1        14     9      180.000000        0.098817         2
         9         5         1        14     9        0.000000        0.606913         3
         9         5         1        14     9      180.000000        0.095965         4
         9         5         1        15     9        0.000000       -0.145765         1
         9         5         1        15     9      180.000000        0.098817         2
         9         5         1        15     9        0.000000        0.606913         3
         9         5         1        15     9      180.000000        0.095965         4
         9         5        13        18     9        0.000000        1.961825         1
         9         5        13        18     9      180.000000        1.303837         2
         9         5        13        18     9        0.000000        0.780068         3
         9         5        13        18     9      180.000000        0.340225         4
        10         9         5        13     9        0.000000       -2.722522         1
        10         9         5        13     9      180.000000       -1.507971         2
        10         9         5        13     9        0.000000        0.720508         3
        10         9         5        13     9      180.000000        0.380208         4
        11        10         9        16     9        0.000000        0.506183         1
        11        10         9        16     9      180.000000        0.014166         2
        11        10         9        16     9        0.000000        0.057276         3
        11        10         9        16     9      180.000000       -0.034973         4
        11        10         9        17     9        0.000000        0.506183         1
        11        10         9        17     9      180.000000        0.014166         2
        11        10         9        17     9        0.000000        0.057276         3
        11        10         9        17     9      180.000000       -0.034973         4
        12        10         9        16     9        0.000000        0.506183         1
        12        10         9        16     9      180.000000        0.014166         2
        12        10         9        16     9        0.000000        0.057276         3
        12        10         9        16     9      180.000000       -0.034973         4
        12        10         9        17     9        0.000000        0.506183         1
        12        10         9        17     9      180.000000        0.014166         2
        12        10         9        17     9        0.000000        0.057276         3
        12        10         9        17     9      180.000000       -0.034973         4
        13         5         1        14     9        0.000000        0.744259         1
        13         5         1        14     9      180.000000       -0.153727         2
        13         5         1        14     9        0.000000        0.792483         3
        13         5         1        14     9      180.000000       -0.033267         4
        13         5         1        15     9        0.000000        0.744260         1
        13         5         1        15     9      180.000000       -0.153726         2
        13         5         1        15     9        0.000000        0.792483         3
        13         5         1        15     9      180.000000       -0.033267         4
        13         5         9        16     9        0.000000        0.744260         1
        13         5         9        16     9      180.000000       -0.153726         2
        13         5         9        16     9        0.000000        0.792483         3
        13         5         9        16     9      180.000000       -0.033267         4
        13         5         9        17     9        0.000000        0.744260         1
        13         5         9        17     9      180.000000       -0.153726         2
        13         5         9        17     9        0.000000        0.792483         3
        13         5         9        17     9      180.000000       -0.033267         4

[ dihedrals ] ; impropers
;       ai        aj        ak        al funct           phase               k        pn
         2         1         3         4     4      180.000000        5.578667         2
         2         3         4         1     4      180.000000        5.578667         2
         2         4         1         3     4      180.000000        5.578667         2
         6         5         7         8     4      180.000000        5.578667         2
         6         7         8         5     4      180.000000        5.578667         2
         6         8         5         7     4      180.000000        5.578667         2
        10         9        11        12     4      180.000000        5.578667         2
        10        11        12         9     4      180.000000        5.578667         2
        10        12         9        11     4      180.000000        5.578667         2

[ pairs ]
;       ai        aj funct
         1         7     1
         1         8     1
         1        10     1
         1        16     1
         1        17     1
         1        18     1
         2         6     1
         2         9     1
         2        13     1
         3         5     1
         3        14     1
         3        15     1
         4         5     1
         4        14     1
         4        15     1
         5        11     1
         5        12     1
         6        10     1
         6        14     1
         6        15     1
         6        16     1
         6        17     1
         6        18     1
         7         9     1
         7        13     1
         8         9     1
         8        13     1
         9        14     1
         9        15     1
         9        18     1
        10        13     1
        11        16     1
        11        17     1
        12        16     1
        12        17     1
        13        14     1
        13        15     1
        13        16     1
        13        17     1
