; ITP file created by ByteFF-ML, 2026-02-21 07:46:07.936778

[ atomtypes ]
;name           bonded.type        at.num        mass        charge   ptype           sigma         epsilon
 o0bf                                   8      0.0000       0.00000       A     3.23702e-01     3.76543e-01
 p1bf                                  15      0.0000       0.00000       A     3.70450e-01     9.77937e-01
 o2bf                                   8      0.0000       0.00000       A     3.05341e-01     6.14519e-01
 o3bf                                   8      0.0000       0.00000       A     3.05341e-01     6.14519e-01
 o4bf                                   8      0.0000       0.00000       A     3.05341e-01     6.14519e-01
 h5bf                                   1      0.0000       0.00000       A     5.57575e-02     2.21471e-02

[ moleculetype ]
;name             nrexcl
 POP_3                 3

[ atoms ]
;       nr            type      resi   res      atom      cgnr      charge          mass ; qtot
         1            o0bf         1   UNL        o0         1    -0.79747       15.9990 ; qtot   -0.797
         2            p1bf         1   UNL        p1         2     1.20449       30.9740 ; qtot    0.407
         3            o2bf         1   UNL        o2         3    -0.92749       15.9990 ; qtot   -0.520
         4            o3bf         1   UNL        o3         4    -0.92749       15.9990 ; qtot   -1.448
         5            o4bf         1   UNL        o4         5    -0.92749       15.9990 ; qtot   -2.375
         6            h5bf         1   UNL        h5         6     0.37545        1.0080 ; qtot   -2.000

[ bonds ]
;       ai        aj funct               r               k
         1         2     1        0.179189    56859.408276
         1         6     1        0.097581   443235.553906
         2         3     1        0.154049   384498.031689
         2         4     1        0.154049   384498.031689
         2         5     1        0.154049   384498.031689

[ angles ]
;       ai        aj        ak funct           theta             cth
         1         2         3     1      101.824417      626.687112
         1         2         4     1      101.824417      626.687112
         1         2         5     1      101.824417      626.687112
         2         1         6     1      100.950623      599.727777
         3         2         4     1      116.164566      654.260870
         3         2         5     1      116.164566      654.260870
         4         2         5     1      116.164566      654.260870

[ dihedrals ] ; propers for gromacs 4.5 or higher, use funct 9
;       ai        aj        ak        al funct           phase               k        pn
         3         2         1         6     9        0.000000       11.235111         1
         3         2         1         6     9      180.000000       -0.033269         2
         3         2         1         6     9        0.000000        1.847327         3
         3         2         1         6     9      180.000000       -0.150006         4
         4         2         1         6     9        0.000000       11.235111         1
         4         2         1         6     9      180.000000       -0.033269         2
         4         2         1         6     9        0.000000        1.847327         3
         4         2         1         6     9      180.000000       -0.150006         4
         5         2         1         6     9        0.000000       11.235111         1
         5         2         1         6     9      180.000000       -0.033269         2
         5         2         1         6     9        0.000000        1.847327         3
         5         2         1         6     9      180.000000       -0.150006         4

[ pairs ]
;       ai        aj funct
         3         6     1
         4         6     1
         5         6     1
