; ITP file created by ByteFF-ML, 2025-12-06 04:49:58.546829

[ atomtypes ]
;name           bonded.type        at.num        mass        charge   ptype           sigma         epsilon
 f0bf                                   9      0.0000       0.00000       A     3.03451e-01     3.47961e-01
 c1bf                                   6      0.0000       0.00000       A     3.39851e-01     4.48847e-01
 f2bf                                   9      0.0000       0.00000       A     3.03451e-01     3.47961e-01
 f3bf                                   9      0.0000       0.00000       A     3.03451e-01     3.47961e-01
 c4bf                                   6      0.0000       0.00000       A     3.31621e-01     4.13384e-01
 c5bf                                   6      0.0000       0.00000       A     3.31475e-01     4.13159e-01
 c6bf                                   6      0.0000       0.00000       A     3.31584e-01     4.14956e-01
 o7bf                                   8      0.0000       0.00000       A     3.15756e-01     3.08030e-01
 c8bf                                   6      0.0000       0.00000       A     3.31241e-01     4.10680e-01
 c9bf                                   6      0.0000       0.00000       A     3.31219e-01     4.13182e-01
 n10bf                                  7      0.0000       0.00000       A     3.26853e-01     4.96156e-01
 c11bf                                  6      0.0000       0.00000       A     3.31228e-01     4.15270e-01
 o12bf                                  8      0.0000       0.00000       A     3.04781e-01     6.14498e-01
 n13bf                                  7      0.0000       0.00000       A     3.26977e-01     4.92628e-01
 c14bf                                  6      0.0000       0.00000       A     3.31384e-01     4.12247e-01
 c15bf                                  6      0.0000       0.00000       A     3.31429e-01     4.14140e-01
 f16bf                                  9      0.0000       0.00000       A     3.03340e-01     3.48471e-01
 c17bf                                  6      0.0000       0.00000       A     3.31555e-01     4.12916e-01
 c18bf                                  6      0.0000       0.00000       A     3.31486e-01     4.13545e-01
 f19bf                                  9      0.0000       0.00000       A     3.03414e-01     3.47611e-01
 c20bf                                  6      0.0000       0.00000       A     3.31461e-01     4.12675e-01
 c21bf                                  6      0.0000       0.00000       A     3.31630e-01     4.12592e-01
 c22bf                                  6      0.0000       0.00000       A     3.31584e-01     4.13224e-01
 c23bf                                  6      0.0000       0.00000       A     3.31481e-01     4.12981e-01
 c24bf                                  6      0.0000       0.00000       A     3.31514e-01     4.12560e-01
 n25bf                                  7      0.0000       0.00000       A     3.38247e-01     3.91955e-01
 c26bf                                  6      0.0000       0.00000       A     3.31510e-01     4.13886e-01
 c27bf                                  6      0.0000       0.00000       A     3.31532e-01     4.13738e-01
 c28bf                                  6      0.0000       0.00000       A     3.31502e-01     4.12745e-01
 h29bf                                  1      0.0000       0.00000       A     2.62520e-01     6.72073e-02
 h30bf                                  1      0.0000       0.00000       A     1.10974e-01     4.12520e-02
 h31bf                                  1      0.0000       0.00000       A     1.10655e-01     4.19367e-02
 h32bf                                  1      0.0000       0.00000       A     2.62508e-01     6.71562e-02
 h33bf                                  1      0.0000       0.00000       A     2.62554e-01     6.71881e-02
 h34bf                                  1      0.0000       0.00000       A     2.62616e-01     6.72520e-02
 h35bf                                  1      0.0000       0.00000       A     2.62621e-01     6.73062e-02
 h36bf                                  1      0.0000       0.00000       A     2.62506e-01     6.74387e-02
 h37bf                                  1      0.0000       0.00000       A     2.53538e-01     6.71594e-02
 h38bf                                  1      0.0000       0.00000       A     2.62525e-01     6.72408e-02
 h39bf                                  1      0.0000       0.00000       A     2.62527e-01     6.72711e-02
 h40bf                                  1      0.0000       0.00000       A     2.62655e-01     6.75361e-02

[ moleculetype ]
;name             nrexcl
 1                     3

[ atoms ]
;       nr            type      resi   res      atom      cgnr      charge          mass ; qtot
         1            f0bf         1   UNL        f0         1    -0.10409       18.9980 ; qtot   -0.104
         2            c1bf         1   UNL        c1         2     0.33660       12.0110 ; qtot    0.233
         3            f2bf         1   UNL        f2         3    -0.10409       18.9980 ; qtot    0.128
         4            f3bf         1   UNL        f3         4    -0.10409       18.9980 ; qtot    0.024
         5            c4bf         1   UNL        c4         5    -0.16367       12.0110 ; qtot   -0.139
         6            c5bf         1   UNL        c5         6    -0.06086       12.0110 ; qtot   -0.200
         7            c6bf         1   UNL        c6         7     0.11228       12.0110 ; qtot   -0.088
         8            o7bf         1   UNL        o7         8    -0.38334       15.9990 ; qtot   -0.471
         9            c8bf         1   UNL        c8         9     0.51952       12.0110 ; qtot    0.048
        10            c9bf         1   UNL        c9        10    -0.06788       12.0110 ; qtot   -0.020
        11           n10bf         1   UNL       n10        11    -0.14979       14.0070 ; qtot   -0.169
        12           c11bf         1   UNL       c11        12     0.66117       12.0110 ; qtot    0.492
        13           o12bf         1   UNL       o12        13    -0.59150       15.9990 ; qtot   -0.100
        14           n13bf         1   UNL       n13        14    -0.15983       14.0070 ; qtot   -0.260
        15           c14bf         1   UNL       c14        15    -0.06639       12.0110 ; qtot   -0.326
        16           c15bf         1   UNL       c15        16     0.14722       12.0110 ; qtot   -0.179
        17           f16bf         1   UNL       f16        17    -0.17864       18.9980 ; qtot   -0.357
        18           c17bf         1   UNL       c17        18    -0.16279       12.0110 ; qtot   -0.520
        19           c18bf         1   UNL       c18        19     0.17293       12.0110 ; qtot   -0.347
        20           f19bf         1   UNL       f19        20    -0.17328       18.9980 ; qtot   -0.521
        21           c20bf         1   UNL       c20        21    -0.13392       12.0110 ; qtot   -0.654
        22           c21bf         1   UNL       c21        22    -0.09351       12.0110 ; qtot   -0.748
        23           c22bf         1   UNL       c22        23    -0.08259       12.0110 ; qtot   -0.831
        24           c23bf         1   UNL       c23        24    -0.15962       12.0110 ; qtot   -0.990
        25           c24bf         1   UNL       c24        25     0.34178       12.0110 ; qtot   -0.648
        26           n25bf         1   UNL       n25        26    -0.70598       14.0070 ; qtot   -1.354
        27           c26bf         1   UNL       c26        27    -0.11065       12.0110 ; qtot   -1.465
        28           c27bf         1   UNL       c27        28    -0.09237       12.0110 ; qtot   -1.557
        29           c28bf         1   UNL       c28        29    -0.07766       12.0110 ; qtot   -1.635
        30           h29bf         1   UNL       h29        30     0.14610        1.0080 ; qtot   -1.489
        31           h30bf         1   UNL       h30        31     0.17579        1.0080 ; qtot   -1.313
        32           h31bf         1   UNL       h31        32     0.16511        1.0080 ; qtot   -1.148
        33           h32bf         1   UNL       h32        33     0.15660        1.0080 ; qtot   -0.991
        34           h33bf         1   UNL       h33        34     0.14037        1.0080 ; qtot   -0.851
        35           h34bf         1   UNL       h34        35     0.15051        1.0080 ; qtot   -0.701
        36           h35bf         1   UNL       h35        36     0.15134        1.0080 ; qtot   -0.549
        37           h36bf         1   UNL       h36        37     0.12997        1.0080 ; qtot   -0.419
        38           h37bf         1   UNL       h37        38     0.02910        1.0080 ; qtot   -0.390
        39           h38bf         1   UNL       h38        39     0.13259        1.0080 ; qtot   -0.258
        40           h39bf         1   UNL       h39        40     0.12498        1.0080 ; qtot   -0.133
        41           h40bf         1   UNL       h40        41     0.13258        1.0080 ; qtot   -0.000

[ bonds ]
;       ai        aj funct               r               k
         1         2     1        0.135848   221750.237939
         2         3     1        0.135848   221750.237939
         2         4     1        0.135848   221750.237939
         2         5     1        0.150642   194411.357812
         5         6     1        0.139683   306929.649316
         5        29     1        0.139893   298842.506445
         6         7     1        0.139458   302119.734766
         6        30     1        0.108435   325508.739111
         7         8     1        0.139076   226098.952295
         7        27     1        0.139507   300349.451270
         8         9     1        0.137972   227076.921436
         9        10     1        0.141455   241784.559912
         9        26     1        0.131650   340496.647363
        10        11     1        0.140423   262254.059766
        10        23     1        0.139669   302796.953369
        11        12     1        0.138736   242389.099902
        11        31     1        0.101419   408858.186768
        12        13     1        0.122634   597571.730273
        12        14     1        0.139043   236995.202734
        14        15     1        0.140773   255765.846387
        14        32     1        0.101162   417452.675391
        15        16     1        0.140308   266715.775830
        15        22     1        0.140394   286496.641992
        16        17     1        0.135888   285413.511035
        16        18     1        0.138764   323912.950684
        18        19     1        0.139270   308111.634424
        18        33     1        0.108389   328686.628076
        19        20     1        0.135537   293055.388867
        19        21     1        0.139062   307879.399951
        21        22     1        0.139704   321843.040283
        21        34     1        0.108453   326108.554736
        22        35     1        0.108217   330973.527295
        23        24     1        0.140003   313082.713672
        23        36     1        0.108193   330892.421436
        24        25     1        0.139139   305686.170850
        24        37     1        0.108503   324361.765381
        25        26     1        0.134429   311714.895020
        25        38     1        0.108728   317581.203174
        27        28     1        0.139703   315002.338184
        27        39     1        0.108471   324023.654053
        28        29     1        0.139776   311431.637402
        28        40     1        0.108575   321535.088281
        29        41     1        0.108475   324244.422363

[ angles ]
;       ai        aj        ak funct           theta             cth
         1         2         3     1      106.673416      701.102313
         1         2         4     1      106.673416      701.102313
         1         2         5     1      111.963486      590.221141
         2         5         6     1      119.258873      488.824389
         2         5        29     1      119.563637      526.853294
         3         2         4     1      106.673416      701.102313
         3         2         5     1      111.963486      590.221141
         4         2         5     1      111.963486      590.221141
         5         6         7     1      118.906960      675.205641
         5         6        30     1      121.073891      390.436642
         5        29        28     1      119.033890      671.258051
         5        29        41     1      120.217079      418.336221
         6         5        29     1      120.920876      664.961110
         6         7         8     1      119.127602      475.579886
         6         7        27     1      121.136398      642.560405
         7         6        30     1      119.610718      415.840160
         7         8         9     1      118.996475      468.152929
         7        27        28     1      119.077614      700.722384
         7        27        39     1      119.664551      413.801469
         8         7        27     1      119.560463      505.160382
         8         9        10     1      116.891190      365.084836
         8         9        26     1      119.251526      575.307278
         9        10        11     1      117.626175      431.158851
         9        10        23     1      116.875977      643.692976
         9        26        25     1      118.202881      715.701240
        10         9        26     1      124.298561      669.115487
        10        11        12     1      126.219688      451.027839
        10        11        31     1      114.048378      434.130349
        10        23        24     1      118.717087      830.537407
        10        23        36     1      119.480087      442.212844
        11        10        23     1      125.502136      569.232191
        11        12        13     1      124.056229      550.030073
        11        12        14     1      112.700821      550.207236
        12        11        31     1      117.654404      437.032322
        12        14        15     1      125.835693      474.200212
        12        14        32     1      116.933777      448.974560
        13        12        14     1      124.329651      554.576253
        14        15        16     1      117.896133      465.848779
        14        15        22     1      124.743919      612.000593
        15        14        32     1      114.951523      443.905763
        15        16        17     1      118.070778      408.412341
        15        16        18     1      123.285889      603.356473
        15        22        21     1      120.847473      745.602386
        15        22        35     1      118.967445      449.668977
        16        15        22     1      117.366394      485.137213
        16        18        19     1      117.403702      736.110753
        16        18        33     1      120.908669      429.970864
        17        16        18     1      118.542099      555.436917
        18        19        20     1      118.491798      581.824859
        18        19        21     1      122.138992      546.835189
        19        18        33     1      121.557007      435.516311
        19        21        22     1      119.095474      680.692672
        19        21        34     1      119.912819      446.276819
        20        19        21     1      119.320358      579.892211
        21        22        35     1      120.405594      381.630202
        22        21        34     1      121.047348      426.517736
        23        24        25     1      119.055466      724.682960
        23        24        37     1      120.423485      439.039411
        24        23        36     1      121.786972      385.096960
        24        25        26     1      122.499290      661.638094
        24        25        38     1      121.265182      408.189083
        25        24        37     1      120.600418      442.820723
        26        25        38     1      116.190018      392.705071
        27        28        29     1      120.545677      713.667337
        27        28        40     1      119.583778      428.611077
        28        27        39     1      121.394608      418.058218
        28        29        41     1      120.676865      426.254289
        29        28        40     1      119.880020      433.195531

[ dihedrals ] ; propers for gromacs 4.5 or higher, use funct 9
;       ai        aj        ak        al funct           phase               k        pn
         1         2         5         6     9        0.000000       -0.056845         1
         1         2         5         6     9      180.000000        0.147564         2
         1         2         5         6     9        0.000000        0.094344         3
         1         2         5         6     9      180.000000        0.023205         4
         1         2         5        29     9        0.000000       -0.024666         1
         1         2         5        29     9      180.000000        0.065951         2
         1         2         5        29     9        0.000000        0.107954         3
         1         2         5        29     9      180.000000        0.013499         4
         2         5         6         7     9        0.000000        0.215367         1
         2         5         6         7     9      180.000000       15.224711         2
         2         5         6         7     9        0.000000        0.160889         3
         2         5         6         7     9      180.000000       -0.294407         4
         2         5         6        30     9        0.000000        0.062054         1
         2         5         6        30     9      180.000000       12.135615         2
         2         5         6        30     9        0.000000       -0.273581         3
         2         5         6        30     9      180.000000        0.098556         4
         2         5        29        28     9        0.000000        0.052564         1
         2         5        29        28     9      180.000000       15.093531         2
         2         5        29        28     9        0.000000       -0.022061         3
         2         5        29        28     9      180.000000       -0.279823         4
         2         5        29        41     9        0.000000        0.021646         1
         2         5        29        41     9      180.000000       12.001621         2
         2         5        29        41     9        0.000000       -0.324659         3
         2         5        29        41     9      180.000000        0.133723         4
         3         2         5         6     9        0.000000       -0.056845         1
         3         2         5         6     9      180.000000        0.147564         2
         3         2         5         6     9        0.000000        0.094344         3
         3         2         5         6     9      180.000000        0.023205         4
         3         2         5        29     9        0.000000       -0.024666         1
         3         2         5        29     9      180.000000        0.065951         2
         3         2         5        29     9        0.000000        0.107954         3
         3         2         5        29     9      180.000000        0.013499         4
         4         2         5         6     9        0.000000       -0.056845         1
         4         2         5         6     9      180.000000        0.147564         2
         4         2         5         6     9        0.000000        0.094344         3
         4         2         5         6     9      180.000000        0.023205         4
         4         2         5        29     9        0.000000       -0.024666         1
         4         2         5        29     9      180.000000        0.065951         2
         4         2         5        29     9        0.000000        0.107954         3
         4         2         5        29     9      180.000000        0.013499         4
         5         6         7         8     9        0.000000        0.461178         1
         5         6         7         8     9      180.000000       18.685890         2
         5         6         7         8     9        0.000000        0.578921         3
         5         6         7         8     9      180.000000       -0.438095         4
         5         6         7        27     9        0.000000        0.131992         1
         5         6         7        27     9      180.000000       17.207648         2
         5         6         7        27     9        0.000000       -0.953156         3
         5         6         7        27     9      180.000000       -0.284457         4
         5        29        28        27     9        0.000000        0.076388         1
         5        29        28        27     9      180.000000       18.872772         2
         5        29        28        27     9        0.000000       -1.670059         3
         5        29        28        27     9      180.000000       -0.377128         4
         5        29        28        40     9        0.000000        0.075182         1
         5        29        28        40     9      180.000000       14.906743         2
         5        29        28        40     9        0.000000       -0.691169         3
         5        29        28        40     9      180.000000        0.085825         4
         6         5        29        28     9        0.000000       -0.097626         1
         6         5        29        28     9      180.000000       18.802134         2
         6         5        29        28     9        0.000000       -1.614990         3
         6         5        29        28     9      180.000000       -0.392323         4
         6         5        29        41     9        0.000000        0.086682         1
         6         5        29        41     9      180.000000       14.632806         2
         6         5        29        41     9        0.000000       -0.721878         3
         6         5        29        41     9      180.000000        0.027501         4
         6         7         8         9     9        0.000000       -0.096951         1
         6         7         8         9     9      180.000000        3.845560         2
         6         7         8         9     9        0.000000       -0.637443         3
         6         7         8         9     9      180.000000        0.505060         4
         6         7        27        28     9        0.000000        0.009736         1
         6         7        27        28     9      180.000000       16.835914         2
         6         7        27        28     9        0.000000       -0.933731         3
         6         7        27        28     9      180.000000       -0.219708         4
         6         7        27        39     9        0.000000        0.042221         1
         6         7        27        39     9      180.000000       13.111511         2
         6         7        27        39     9        0.000000       -0.535863         3
         6         7        27        39     9      180.000000        0.136008         4
         7         6         5        29     9        0.000000       -0.080829         1
         7         6         5        29     9      180.000000       18.431429         2
         7         6         5        29     9        0.000000       -1.585221         3
         7         6         5        29     9      180.000000       -0.412846         4
         7         8         9        10     9        0.000000        2.791597         1
         7         8         9        10     9      180.000000        2.854338         2
         7         8         9        10     9        0.000000        0.008276         3
         7         8         9        10     9      180.000000       -0.081408         4
         7         8         9        26     9        0.000000       -1.163770         1
         7         8         9        26     9      180.000000        4.059284         2
         7         8         9        26     9        0.000000       -0.809870         3
         7         8         9        26     9      180.000000       -0.060210         4
         7        27        28        29     9        0.000000       -0.065058         1
         7        27        28        29     9      180.000000       18.729965         2
         7        27        28        29     9        0.000000       -1.425256         3
         7        27        28        29     9      180.000000       -0.471228         4
         7        27        28        40     9        0.000000        0.047456         1
         7        27        28        40     9      180.000000       14.866803         2
         7        27        28        40     9        0.000000       -0.511681         3
         7        27        28        40     9      180.000000        0.022194         4
         8         7         6        30     9        0.000000        0.241204         1
         8         7         6        30     9      180.000000       13.972061         2
         8         7         6        30     9        0.000000        0.209932         3
         8         7         6        30     9      180.000000        0.287732         4
         8         7        27        28     9        0.000000        0.691592         1
         8         7        27        28     9      180.000000       18.726699         2
         8         7        27        28     9        0.000000        0.679696         3
         8         7        27        28     9      180.000000       -0.385291         4
         8         7        27        39     9        0.000000        0.168960         1
         8         7        27        39     9      180.000000       14.166477         2
         8         7        27        39     9        0.000000        0.177158         3
         8         7        27        39     9      180.000000        0.249999         4
         8         9        10        11     9        0.000000        0.079118         1
         8         9        10        11     9      180.000000       15.943068         2
         8         9        10        11     9        0.000000        0.335160         3
         8         9        10        11     9      180.000000       -0.375931         4
         8         9        10        23     9        0.000000        0.367062         1
         8         9        10        23     9      180.000000       12.897585         2
         8         9        10        23     9        0.000000        0.264182         3
         8         9        10        23     9      180.000000       -0.062919         4
         8         9        26        25     9        0.000000        0.951283         1
         8         9        26        25     9      180.000000       29.893619         2
         8         9        26        25     9        0.000000        1.349691         3
         8         9        26        25     9      180.000000       -0.721816         4
         9         8         7        27     9        0.000000        0.084530         1
         9         8         7        27     9      180.000000        3.730263         2
         9         8         7        27     9        0.000000       -0.527888         3
         9         8         7        27     9      180.000000        0.458010         4
         9        10        11        12     9        0.000000       -1.674583         1
         9        10        11        12     9      180.000000        1.888940         2
         9        10        11        12     9        0.000000        0.296416         3
         9        10        11        12     9      180.000000       -0.062635         4
         9        10        11        31     9        0.000000        1.738829         1
         9        10        11        31     9      180.000000        1.587693         2
         9        10        11        31     9        0.000000        0.489558         3
         9        10        11        31     9      180.000000       -0.381082         4
         9        10        23        24     9        0.000000        0.030817         1
         9        10        23        24     9      180.000000       17.824404         2
         9        10        23        24     9        0.000000       -1.212316         3
         9        10        23        24     9      180.000000       -0.515062         4
         9        10        23        36     9        0.000000        0.112899         1
         9        10        23        36     9      180.000000       13.626117         2
         9        10        23        36     9        0.000000       -0.408094         3
         9        10        23        36     9      180.000000        0.036469         4
         9        26        25        24     9        0.000000        0.056121         1
         9        26        25        24     9      180.000000       22.227408         2
         9        26        25        24     9        0.000000       -1.099500         3
         9        26        25        24     9      180.000000       -0.344180         4
         9        26        25        38     9        0.000000        1.036486         1
         9        26        25        38     9      180.000000       19.807955         2
         9        26        25        38     9        0.000000        0.288466         3
         9        26        25        38     9      180.000000       -0.599441         4
        10         9        26        25     9        0.000000        0.158669         1
        10         9        26        25     9      180.000000       23.115477         2
        10         9        26        25     9        0.000000       -0.233633         3
        10         9        26        25     9      180.000000       -0.071711         4
        10        11        12        13     9        0.000000       -2.527557         1
        10        11        12        13     9      180.000000        4.982852         2
        10        11        12        13     9        0.000000       -0.700781         3
        10        11        12        13     9      180.000000       -0.190937         4
        10        11        12        14     9        0.000000        5.652654         1
        10        11        12        14     9      180.000000        6.637302         2
        10        11        12        14     9        0.000000        0.065031         3
        10        11        12        14     9      180.000000       -0.204078         4
        10        23        24        25     9        0.000000        0.066168         1
        10        23        24        25     9      180.000000       18.396385         2
        10        23        24        25     9        0.000000       -2.102023         3
        10        23        24        25     9      180.000000       -0.535985         4
        10        23        24        37     9        0.000000        0.126273         1
        10        23        24        37     9      180.000000       15.018723         2
        10        23        24        37     9        0.000000       -0.647982         3
        10        23        24        37     9      180.000000       -0.080098         4
        11        10         9        26     9        0.000000        0.220828         1
        11        10         9        26     9      180.000000       12.478480         2
        11        10         9        26     9        0.000000       -0.109575         3
        11        10         9        26     9      180.000000       -0.329487         4
        11        10        23        24     9        0.000000        0.334774         1
        11        10        23        24     9      180.000000       18.629022         2
        11        10        23        24     9        0.000000        0.316335         3
        11        10        23        24     9      180.000000       -0.464757         4
        11        10        23        36     9        0.000000        0.246514         1
        11        10        23        36     9      180.000000       14.352632         2
        11        10        23        36     9        0.000000       -0.128549         3
        11        10        23        36     9      180.000000        0.162568         4
        11        12        14        15     9        0.000000        5.871383         1
        11        12        14        15     9      180.000000        6.264910         2
        11        12        14        15     9        0.000000       -0.005788         3
        11        12        14        15     9      180.000000       -0.113599         4
        11        12        14        32     9        0.000000        4.935768         1
        11        12        14        32     9      180.000000        6.793673         2
        11        12        14        32     9        0.000000       -0.414757         3
        11        12        14        32     9      180.000000        0.171770         4
        12        11        10        23     9        0.000000       -0.418977         1
        12        11        10        23     9      180.000000        1.868920         2
        12        11        10        23     9        0.000000       -0.411079         3
        12        11        10        23     9      180.000000        0.466012         4
        12        14        15        16     9        0.000000       -1.547958         1
        12        14        15        16     9      180.000000        1.879857         2
        12        14        15        16     9        0.000000        0.398423         3
        12        14        15        16     9      180.000000       -0.171110         4
        12        14        15        22     9        0.000000        0.037020         1
        12        14        15        22     9      180.000000        1.870517         2
        12        14        15        22     9        0.000000       -0.384131         3
        12        14        15        22     9      180.000000        0.250744         4
        13        12        11        31     9        0.000000       -2.197596         1
        13        12        11        31     9      180.000000        5.206707         2
        13        12        11        31     9        0.000000       -0.156254         3
        13        12        11        31     9      180.000000       -0.061739         4
        13        12        14        15     9        0.000000       -3.186777         1
        13        12        14        15     9      180.000000        4.970690         2
        13        12        14        15     9        0.000000       -0.710736         3
        13        12        14        15     9      180.000000       -0.192241         4
        13        12        14        32     9        0.000000       -2.070061         1
        13        12        14        32     9      180.000000        5.396444         2
        13        12        14        32     9        0.000000        0.007260         3
        13        12        14        32     9      180.000000        0.005756         4
        14        12        11        31     9        0.000000        4.520113         1
        14        12        11        31     9      180.000000        6.955878         2
        14        12        11        31     9        0.000000       -0.244708         3
        14        12        11        31     9      180.000000        0.130108         4
        14        15        16        17     9        0.000000        0.212026         1
        14        15        16        17     9      180.000000       19.970574         2
        14        15        16        17     9        0.000000        0.461763         3
        14        15        16        17     9      180.000000       -0.714402         4
        14        15        16        18     9        0.000000       -0.004763         1
        14        15        16        18     9      180.000000       13.879186         2
        14        15        16        18     9        0.000000       -0.164967         3
        14        15        16        18     9      180.000000       -0.068897         4
        14        15        22        21     9        0.000000        0.345412         1
        14        15        22        21     9      180.000000       17.284844         2
        14        15        22        21     9        0.000000        0.266650         3
        14        15        22        21     9      180.000000       -0.291108         4
        14        15        22        35     9        0.000000       -0.031862         1
        14        15        22        35     9      180.000000       13.743311         2
        14        15        22        35     9        0.000000       -0.104833         3
        14        15        22        35     9      180.000000        0.201800         4
        15        16        18        19     9        0.000000       -0.192976         1
        15        16        18        19     9      180.000000       17.087411         2
        15        16        18        19     9        0.000000       -1.467659         3
        15        16        18        19     9      180.000000       -0.236671         4
        15        16        18        33     9        0.000000        0.024704         1
        15        16        18        33     9      180.000000       12.253357         2
        15        16        18        33     9        0.000000       -0.542038         3
        15        16        18        33     9      180.000000        0.125134         4
        15        22        21        19     9        0.000000       -0.061826         1
        15        22        21        19     9      180.000000       18.709352         2
        15        22        21        19     9        0.000000       -1.811185         3
        15        22        21        19     9      180.000000       -0.427110         4
        15        22        21        34     9        0.000000        0.084549         1
        15        22        21        34     9      180.000000       14.480534         2
        15        22        21        34     9        0.000000       -0.605869         3
        15        22        21        34     9      180.000000       -0.012353         4
        16        15        14        32     9        0.000000        0.029921         1
        16        15        14        32     9      180.000000        1.489283         2
        16        15        14        32     9        0.000000        0.129288         3
        16        15        14        32     9      180.000000       -0.671668         4
        16        15        22        21     9        0.000000        0.002129         1
        16        15        22        21     9      180.000000       17.123937         2
        16        15        22        21     9        0.000000       -1.175799         3
        16        15        22        21     9      180.000000       -0.355843         4
        16        15        22        35     9        0.000000        0.012013         1
        16        15        22        35     9      180.000000       13.149331         2
        16        15        22        35     9        0.000000       -0.527817         3
        16        15        22        35     9      180.000000        0.069930         4
        16        18        19        20     9        0.000000        0.265172         1
        16        18        19        20     9      180.000000       22.425267         2
        16        18        19        20     9        0.000000        0.569510         3
        16        18        19        20     9      180.000000       -0.704767         4
        16        18        19        21     9        0.000000       -0.108745         1
        16        18        19        21     9      180.000000       17.017086         2
        16        18        19        21     9        0.000000       -1.295117         3
        16        18        19        21     9      180.000000       -0.342328         4
        17        16        15        22     9        0.000000        0.569199         1
        17        16        15        22     9      180.000000       17.912070         2
        17        16        15        22     9        0.000000        0.479188         3
        17        16        15        22     9      180.000000       -0.148207         4
        17        16        18        19     9        0.000000        0.487933         1
        17        16        18        19     9      180.000000       22.982924         2
        17        16        18        19     9        0.000000        0.666140         3
        17        16        18        19     9      180.000000       -0.463495         4
        17        16        18        33     9        0.000000        0.215158         1
        17        16        18        33     9      180.000000       15.933714         2
        17        16        18        33     9        0.000000        0.239841         3
        17        16        18        33     9      180.000000        0.312645         4
        18        16        15        22     9        0.000000       -0.025936         1
        18        16        15        22     9      180.000000       13.978819         2
        18        16        15        22     9        0.000000       -1.033595         3
        18        16        15        22     9      180.000000       -0.049359         4
        18        19        21        22     9        0.000000       -0.015296         1
        18        19        21        22     9      180.000000       17.109329         2
        18        19        21        22     9        0.000000       -1.218488         3
        18        19        21        22     9      180.000000       -0.336680         4
        18        19        21        34     9        0.000000        0.110556         1
        18        19        21        34     9      180.000000       13.020770         2
        18        19        21        34     9        0.000000       -0.535367         3
        18        19        21        34     9      180.000000        0.135349         4
        19        21        22        35     9        0.000000        0.161270         1
        19        21        22        35     9      180.000000       14.750788         2
        19        21        22        35     9        0.000000       -0.605995         3
        19        21        22        35     9      180.000000        0.092699         4
        20        19        18        33     9        0.000000        0.276795         1
        20        19        18        33     9      180.000000       14.674730         2
        20        19        18        33     9        0.000000        0.279358         3
        20        19        18        33     9      180.000000        0.262107         4
        20        19        21        22     9        0.000000        0.593154         1
        20        19        21        22     9      180.000000       22.506046         2
        20        19        21        22     9        0.000000        0.499229         3
        20        19        21        22     9      180.000000       -0.620615         4
        20        19        21        34     9        0.000000        0.231349         1
        20        19        21        34     9      180.000000       15.680368         2
        20        19        21        34     9        0.000000        0.302159         3
        20        19        21        34     9      180.000000        0.167354         4
        21        19        18        33     9        0.000000        0.178905         1
        21        19        18        33     9      180.000000       12.111718         2
        21        19        18        33     9        0.000000       -0.475121         3
        21        19        18        33     9      180.000000        0.184205         4
        22        15        14        32     9        0.000000       -0.073581         1
        22        15        14        32     9      180.000000        1.819213         2
        22        15        14        32     9        0.000000       -0.146560         3
        22        15        14        32     9      180.000000       -0.432516         4
        23        10         9        26     9        0.000000        0.040752         1
        23        10         9        26     9      180.000000       10.972651         2
        23        10         9        26     9        0.000000       -0.517360         3
        23        10         9        26     9      180.000000       -0.118747         4
        23        10        11        31     9        0.000000        0.403978         1
        23        10        11        31     9      180.000000        2.149404         2
        23        10        11        31     9        0.000000        0.432385         3
        23        10        11        31     9      180.000000       -0.165767         4
        23        24        25        26     9        0.000000        0.100605         1
        23        24        25        26     9      180.000000       20.168024         2
        23        24        25        26     9        0.000000       -1.195335         3
        23        24        25        26     9      180.000000       -0.567771         4
        23        24        25        38     9        0.000000        0.082489         1
        23        24        25        38     9      180.000000       14.362334         2
        23        24        25        38     9        0.000000       -0.749613         3
        23        24        25        38     9      180.000000        0.097547         4
        25        24        23        36     9        0.000000        0.167049         1
        25        24        23        36     9      180.000000       14.479790         2
        25        24        23        36     9        0.000000       -0.751910         3
        25        24        23        36     9      180.000000        0.148426         4
        26        25        24        37     9        0.000000        0.174483         1
        26        25        24        37     9      180.000000       15.688095         2
        26        25        24        37     9        0.000000       -0.259874         3
        26        25        24        37     9      180.000000       -0.156477         4
        27         7         6        30     9        0.000000        0.056010         1
        27         7         6        30     9      180.000000       12.890448         2
        27         7         6        30     9        0.000000       -0.522917         3
        27         7         6        30     9      180.000000        0.185411         4
        27        28        29        41     9        0.000000        0.117525         1
        27        28        29        41     9      180.000000       14.934186         2
        27        28        29        41     9        0.000000       -0.834549         3
        27        28        29        41     9      180.000000        0.101174         4
        29         5         6        30     9        0.000000        0.048363         1
        29         5         6        30     9      180.000000       14.235145         2
        29         5         6        30     9        0.000000       -0.596556         3
        29         5         6        30     9      180.000000        0.051989         4
        29        28        27        39     9        0.000000        0.108182         1
        29        28        27        39     9      180.000000       14.195930         2
        29        28        27        39     9        0.000000       -0.624027         3
        29        28        27        39     9      180.000000        0.118249         4
        34        21        22        35     9        0.000000       -0.178549         1
        34        21        22        35     9      180.000000       12.068912         2
        34        21        22        35     9        0.000000       -0.803075         3
        34        21        22        35     9      180.000000        0.249229         4
        36        23        24        37     9        0.000000       -0.114528         1
        36        23        24        37     9      180.000000       11.840300         2
        36        23        24        37     9        0.000000       -0.671560         3
        36        23        24        37     9      180.000000        0.313357         4
        37        24        25        38     9        0.000000       -0.153197         1
        37        24        25        38     9      180.000000       12.054830         2
        37        24        25        38     9        0.000000       -0.693173         3
        37        24        25        38     9      180.000000        0.290660         4
        39        27        28        40     9        0.000000       -0.117711         1
        39        27        28        40     9      180.000000       11.992923         2
        39        27        28        40     9        0.000000       -0.643509         3
        39        27        28        40     9      180.000000        0.217301         4
        40        28        29        41     9        0.000000       -0.153393         1
        40        28        29        41     9      180.000000       11.890618         2
        40        28        29        41     9        0.000000       -0.780758         3
        40        28        29        41     9      180.000000        0.311358         4

[ dihedrals ] ; impropers
;       ai        aj        ak        al funct           phase               k        pn
         6         5         7        30     4      180.000000        0.020953         2
         6         7        30         5     4      180.000000        0.020953         2
         6        30         5         7     4      180.000000        0.020953         2
        12        11        13        14     4      180.000000       20.368551         2
        12        13        14        11     4      180.000000       20.368551         2
        12        14        11        13     4      180.000000       20.368551         2
        19        18        20        21     4      180.000000        0.530765         2
        19        20        21        18     4      180.000000        0.530765         2
        19        21        18        20     4      180.000000        0.530765         2
        25        24        26        38     4      180.000000        0.546115         2
        25        26        38        24     4      180.000000        0.546115         2
        25        38        24        26     4      180.000000        0.546115         2
        27         7        28        39     4      180.000000        0.552125         2
        27        28        39         7     4      180.000000        0.552125         2
        27        39         7        28     4      180.000000        0.552125         2
        28        27        29        40     4      180.000000        1.974817         2
        28        29        40        27     4      180.000000        1.974817         2
        28        40        27        29     4      180.000000        1.974817         2

[ pairs ]
;       ai        aj funct
         1         6     1
         1        29     1
         2         7     1
         2        28     1
         2        30     1
         2        41     1
         3         6     1
         3        29     1
         4         6     1
         4        29     1
         5         8     1
         5        27     1
         5        40     1
         6         9     1
         6        28     1
         6        39     1
         6        41     1
         7        10     1
         7        26     1
         7        29     1
         7        40     1
         8        11     1
         8        23     1
         8        25     1
         8        28     1
         8        30     1
         8        39     1
         9        12     1
         9        24     1
         9        27     1
         9        31     1
         9        36     1
         9        38     1
        10        13     1
        10        14     1
        10        25     1
        10        37     1
        11        15     1
        11        24     1
        11        26     1
        11        32     1
        11        36     1
        12        16     1
        12        22     1
        12        23     1
        13        15     1
        13        31     1
        13        32     1
        14        17     1
        14        18     1
        14        21     1
        14        31     1
        14        35     1
        15        19     1
        15        33     1
        15        34     1
        16        20     1
        16        21     1
        16        32     1
        16        35     1
        17        19     1
        17        22     1
        17        33     1
        18        22     1
        18        34     1
        19        35     1
        20        22     1
        20        33     1
        20        34     1
        21        33     1
        22        32     1
        23        26     1
        23        31     1
        23        38     1
        25        36     1
        26        37     1
        27        30     1
        27        41     1
        29        30     1
        29        39     1
        34        35     1
        36        37     1
        37        38     1
        39        40     1
        40        41     1
