; ITP file created by ByteFF-ML, 2025-12-06 04:48:03.745872

[ atomtypes ]
;name           bonded.type        at.num        mass        charge   ptype           sigma         epsilon
 f0bf                                   9      0.0000       0.00000       A     3.03451e-01     3.47961e-01
 c1bf                                   6      0.0000       0.00000       A     3.39851e-01     4.48847e-01
 f2bf                                   9      0.0000       0.00000       A     3.03451e-01     3.47961e-01
 f3bf                                   9      0.0000       0.00000       A     3.03451e-01     3.47961e-01
 c4bf                                   6      0.0000       0.00000       A     3.31621e-01     4.13384e-01
 c5bf                                   6      0.0000       0.00000       A     3.31475e-01     4.13159e-01
 c6bf                                   6      0.0000       0.00000       A     3.31584e-01     4.14956e-01
 o7bf                                   8      0.0000       0.00000       A     3.15756e-01     3.08030e-01
 c8bf                                   6      0.0000       0.00000       A     3.31241e-01     4.10680e-01
 c9bf                                   6      0.0000       0.00000       A     3.31219e-01     4.13182e-01
 n10bf                                  7      0.0000       0.00000       A     3.26853e-01     4.96156e-01
 c11bf                                  6      0.0000       0.00000       A     3.31259e-01     4.14898e-01
 o12bf                                  8      0.0000       0.00000       A     3.04781e-01     6.14498e-01
 n13bf                                  7      0.0000       0.00000       A     3.27155e-01     4.89269e-01
 c14bf                                  6      0.0000       0.00000       A     3.31308e-01     4.11789e-01
 c15bf                                  6      0.0000       0.00000       A     3.31454e-01     4.12645e-01
 c16bf                                  6      0.0000       0.00000       A     3.31481e-01     4.12894e-01
 c17bf                                  6      0.0000       0.00000       A     3.31499e-01     4.12862e-01
 c18bf                                  6      0.0000       0.00000       A     3.31481e-01     4.12894e-01
 c19bf                                  6      0.0000       0.00000       A     3.31454e-01     4.12645e-01
 c20bf                                  6      0.0000       0.00000       A     3.31584e-01     4.13224e-01
 c21bf                                  6      0.0000       0.00000       A     3.31481e-01     4.12981e-01
 c22bf                                  6      0.0000       0.00000       A     3.31514e-01     4.12560e-01
 n23bf                                  7      0.0000       0.00000       A     3.38247e-01     3.91955e-01
 c24bf                                  6      0.0000       0.00000       A     3.31510e-01     4.13886e-01
 c25bf                                  6      0.0000       0.00000       A     3.31532e-01     4.13738e-01
 c26bf                                  6      0.0000       0.00000       A     3.31502e-01     4.12745e-01
 h27bf                                  1      0.0000       0.00000       A     2.62520e-01     6.72073e-02
 h28bf                                  1      0.0000       0.00000       A     1.10974e-01     4.12520e-02
 h29bf                                  1      0.0000       0.00000       A     1.10460e-01     4.18649e-02
 h30bf                                  1      0.0000       0.00000       A     2.62571e-01     6.74818e-02
 h31bf                                  1      0.0000       0.00000       A     2.62480e-01     6.73318e-02
 h32bf                                  1      0.0000       0.00000       A     2.62457e-01     6.73477e-02
 h33bf                                  1      0.0000       0.00000       A     2.62480e-01     6.73318e-02
 h34bf                                  1      0.0000       0.00000       A     2.62571e-01     6.74818e-02
 h35bf                                  1      0.0000       0.00000       A     2.62621e-01     6.73062e-02
 h36bf                                  1      0.0000       0.00000       A     2.62506e-01     6.74387e-02
 h37bf                                  1      0.0000       0.00000       A     2.53538e-01     6.71594e-02
 h38bf                                  1      0.0000       0.00000       A     2.62525e-01     6.72408e-02
 h39bf                                  1      0.0000       0.00000       A     2.62527e-01     6.72711e-02
 h40bf                                  1      0.0000       0.00000       A     2.62655e-01     6.75361e-02

[ moleculetype ]
;name             nrexcl
 6a                    3

[ atoms ]
;       nr            type      resi   res      atom      cgnr      charge          mass ; qtot
         1            f0bf         1   UNL        f0         1    -0.10409       18.9980 ; qtot   -0.104
         2            c1bf         1   UNL        c1         2     0.33660       12.0110 ; qtot    0.233
         3            f2bf         1   UNL        f2         3    -0.10409       18.9980 ; qtot    0.128
         4            f3bf         1   UNL        f3         4    -0.10409       18.9980 ; qtot    0.024
         5            c4bf         1   UNL        c4         5    -0.16367       12.0110 ; qtot   -0.139
         6            c5bf         1   UNL        c5         6    -0.06086       12.0110 ; qtot   -0.200
         7            c6bf         1   UNL        c6         7     0.11228       12.0110 ; qtot   -0.088
         8            o7bf         1   UNL        o7         8    -0.38334       15.9990 ; qtot   -0.471
         9            c8bf         1   UNL        c8         9     0.51952       12.0110 ; qtot    0.048
        10            c9bf         1   UNL        c9        10    -0.06788       12.0110 ; qtot   -0.020
        11           n10bf         1   UNL       n10        11    -0.15042       14.0070 ; qtot   -0.170
        12           c11bf         1   UNL       c11        12     0.65911       12.0110 ; qtot    0.489
        13           o12bf         1   UNL       o12        13    -0.59569       15.9990 ; qtot   -0.107
        14           n13bf         1   UNL       n13        14    -0.16588       14.0070 ; qtot   -0.273
        15           c14bf         1   UNL       c14        15    -0.01420       12.0110 ; qtot   -0.287
        16           c15bf         1   UNL       c15        16    -0.15399       12.0110 ; qtot   -0.441
        17           c16bf         1   UNL       c16        17    -0.08690       12.0110 ; qtot   -0.528
        18           c17bf         1   UNL       c17        18    -0.13283       12.0110 ; qtot   -0.660
        19           c18bf         1   UNL       c18        19    -0.08690       12.0110 ; qtot   -0.747
        20           c19bf         1   UNL       c19        20    -0.15399       12.0110 ; qtot   -0.901
        21           c20bf         1   UNL       c20        21    -0.08259       12.0110 ; qtot   -0.984
        22           c21bf         1   UNL       c21        22    -0.15962       12.0110 ; qtot   -1.144
        23           c22bf         1   UNL       c22        23     0.34178       12.0110 ; qtot   -0.802
        24           n23bf         1   UNL       n23        24    -0.70598       14.0070 ; qtot   -1.508
        25           c24bf         1   UNL       c24        25    -0.11065       12.0110 ; qtot   -1.618
        26           c25bf         1   UNL       c25        26    -0.09237       12.0110 ; qtot   -1.711
        27           c26bf         1   UNL       c26        27    -0.07766       12.0110 ; qtot   -1.788
        28           h27bf         1   UNL       h27        28     0.14610        1.0080 ; qtot   -1.642
        29           h28bf         1   UNL       h28        29     0.17579        1.0080 ; qtot   -1.467
        30           h29bf         1   UNL       h29        30     0.15557        1.0080 ; qtot   -1.311
        31           h30bf         1   UNL       h30        31     0.13130        1.0080 ; qtot   -1.180
        32           h31bf         1   UNL       h31        32     0.11615        1.0080 ; qtot   -1.063
        33           h32bf         1   UNL       h32        33     0.11549        1.0080 ; qtot   -0.948
        34           h33bf         1   UNL       h33        34     0.11615        1.0080 ; qtot   -0.832
        35           h34bf         1   UNL       h34        35     0.13130        1.0080 ; qtot   -0.701
        36           h35bf         1   UNL       h35        36     0.15134        1.0080 ; qtot   -0.549
        37           h36bf         1   UNL       h36        37     0.12997        1.0080 ; qtot   -0.419
        38           h37bf         1   UNL       h37        38     0.02910        1.0080 ; qtot   -0.390
        39           h38bf         1   UNL       h38        39     0.13259        1.0080 ; qtot   -0.258
        40           h39bf         1   UNL       h39        40     0.12498        1.0080 ; qtot   -0.133
        41           h40bf         1   UNL       h40        41     0.13257        1.0080 ; qtot   -0.000

[ bonds ]
;       ai        aj funct               r               k
         1         2     1        0.135848   221750.237939
         2         3     1        0.135848   221750.237939
         2         4     1        0.135848   221750.237939
         2         5     1        0.150642   194411.357812
         5         6     1        0.139683   306929.649316
         5        27     1        0.139893   298842.506445
         6         7     1        0.139458   302119.734766
         6        28     1        0.108435   325508.739111
         7         8     1        0.139076   226098.952295
         7        25     1        0.139507   300349.451270
         8         9     1        0.137972   227076.921436
         9        10     1        0.141455   241784.559912
         9        24     1        0.131650   340496.647363
        10        11     1        0.140423   262254.059766
        10        21     1        0.139669   302796.953369
        11        12     1        0.138886   239709.822998
        11        29     1        0.101419   408858.186768
        12        13     1        0.122725   593985.707227
        12        14     1        0.138361   251727.561133
        14        15     1        0.141187   246996.786084
        14        30     1        0.101091   419225.921191
        15        16     1        0.140578   283461.147949
        15        20     1        0.140578   283461.147949
        16        17     1        0.139645   320029.267090
        16        31     1        0.108365   325616.454639
        17        18     1        0.139893   306313.157959
        17        32     1        0.108629   319362.595312
        18        19     1        0.139893   306313.157959
        18        33     1        0.108596   320746.246973
        19        20     1        0.139645   320029.267090
        19        34     1        0.108629   319362.595312
        20        35     1        0.108365   325616.454639
        21        22     1        0.140003   313082.713672
        21        36     1        0.108193   330892.395898
        22        23     1        0.139139   305686.170850
        22        37     1        0.108503   324361.765381
        23        24     1        0.134429   311714.895020
        23        38     1        0.108728   317581.203174
        25        26     1        0.139703   315002.338184
        25        39     1        0.108471   324023.654053
        26        27     1        0.139776   311431.637402
        26        40     1        0.108575   321535.088281
        27        41     1        0.108475   324244.422363

[ angles ]
;       ai        aj        ak funct           theta             cth
         1         2         3     1      106.673416      701.102313
         1         2         4     1      106.673416      701.102313
         1         2         5     1      111.963486      590.221141
         2         5         6     1      119.258873      488.824389
         2         5        27     1      119.563637      526.853294
         3         2         4     1      106.673416      701.102313
         3         2         5     1      111.963486      590.221141
         4         2         5     1      111.963486      590.221141
         5         6         7     1      118.906960      675.205641
         5         6        28     1      121.073891      390.436642
         5        27        26     1      119.033890      671.258051
         5        27        41     1      120.217079      418.336221
         6         5        27     1      120.920876      664.961110
         6         7         8     1      119.127602      475.579886
         6         7        25     1      121.136398      642.560405
         7         6        28     1      119.610718      415.840160
         7         8         9     1      118.996475      468.152929
         7        25        26     1      119.077614      700.722384
         7        25        39     1      119.664551      413.801469
         8         7        25     1      119.560463      505.160382
         8         9        10     1      116.891190      365.084836
         8         9        24     1      119.251526      575.307278
         9        10        11     1      117.626175      431.158851
         9        10        21     1      116.875977      643.692976
         9        24        23     1      118.202881      715.701240
        10         9        24     1      124.298561      669.115487
        10        11        12     1      126.276352      452.689443
        10        11        29     1      114.048378      434.130349
        10        21        22     1      118.717087      830.537471
        10        21        36     1      119.480087      442.212908
        11        10        21     1      125.502136      569.232191
        11        12        13     1      123.886490      550.707764
        11        12        14     1      112.608353      544.959169
        12        11        29     1      117.628128      436.697435
        12        14        15     1      128.510498      463.258327
        12        14        30     1      116.246033      460.361876
        13        12        14     1      124.614906      546.971174
        14        15        16     1      120.392654      589.031431
        14        15        20     1      120.392654      589.031431
        15        14        30     1      114.726540      453.748371
        15        16        17     1      119.883011      738.243804
        15        16        31     1      119.726746      449.629140
        15        20        19     1      119.883011      738.243804
        15        20        35     1      119.726746      449.629171
        16        15        20     1      119.402367      513.146091
        16        17        18     1      120.781448      687.822505
        16        17        32     1      119.147583      435.974830
        17        16        31     1      120.521744      401.082328
        17        18        19     1      119.201492      659.474845
        17        18        33     1      120.405235      433.870700
        18        17        32     1      120.078384      440.175334
        18        19        20     1      120.781448      687.822505
        18        19        34     1      120.078384      440.175334
        19        18        33     1      120.405235      433.870700
        19        20        35     1      120.521744      401.082328
        20        19        34     1      119.147583      435.974830
        21        22        23     1      119.055466      724.683024
        21        22        37     1      120.423485      439.039411
        22        21        36     1      121.786972      385.096896
        22        23        24     1      122.499290      661.638094
        22        23        38     1      121.265182      408.189083
        23        22        37     1      120.600418      442.820723
        24        23        38     1      116.190018      392.705071
        25        26        27     1      120.545677      713.667337
        25        26        40     1      119.583778      428.611077
        26        25        39     1      121.394608      418.058218
        26        27        41     1      120.676865      426.254289
        27        26        40     1      119.880020      433.195531

[ dihedrals ] ; propers for gromacs 4.5 or higher, use funct 9
;       ai        aj        ak        al funct           phase               k        pn
         1         2         5         6     9        0.000000       -0.056845         1
         1         2         5         6     9      180.000000        0.147564         2
         1         2         5         6     9        0.000000        0.094344         3
         1         2         5         6     9      180.000000        0.023205         4
         1         2         5        27     9        0.000000       -0.024666         1
         1         2         5        27     9      180.000000        0.065951         2
         1         2         5        27     9        0.000000        0.107954         3
         1         2         5        27     9      180.000000        0.013499         4
         2         5         6         7     9        0.000000        0.215367         1
         2         5         6         7     9      180.000000       15.224711         2
         2         5         6         7     9        0.000000        0.160889         3
         2         5         6         7     9      180.000000       -0.294407         4
         2         5         6        28     9        0.000000        0.062054         1
         2         5         6        28     9      180.000000       12.135615         2
         2         5         6        28     9        0.000000       -0.273581         3
         2         5         6        28     9      180.000000        0.098556         4
         2         5        27        26     9        0.000000        0.052564         1
         2         5        27        26     9      180.000000       15.093531         2
         2         5        27        26     9        0.000000       -0.022061         3
         2         5        27        26     9      180.000000       -0.279823         4
         2         5        27        41     9        0.000000        0.021646         1
         2         5        27        41     9      180.000000       12.001621         2
         2         5        27        41     9        0.000000       -0.324659         3
         2         5        27        41     9      180.000000        0.133723         4
         3         2         5         6     9        0.000000       -0.056845         1
         3         2         5         6     9      180.000000        0.147564         2
         3         2         5         6     9        0.000000        0.094344         3
         3         2         5         6     9      180.000000        0.023205         4
         3         2         5        27     9        0.000000       -0.024666         1
         3         2         5        27     9      180.000000        0.065951         2
         3         2         5        27     9        0.000000        0.107954         3
         3         2         5        27     9      180.000000        0.013499         4
         4         2         5         6     9        0.000000       -0.056845         1
         4         2         5         6     9      180.000000        0.147564         2
         4         2         5         6     9        0.000000        0.094344         3
         4         2         5         6     9      180.000000        0.023205         4
         4         2         5        27     9        0.000000       -0.024666         1
         4         2         5        27     9      180.000000        0.065951         2
         4         2         5        27     9        0.000000        0.107954         3
         4         2         5        27     9      180.000000        0.013499         4
         5         6         7         8     9        0.000000        0.461178         1
         5         6         7         8     9      180.000000       18.685890         2
         5         6         7         8     9        0.000000        0.578921         3
         5         6         7         8     9      180.000000       -0.438095         4
         5         6         7        25     9        0.000000        0.131992         1
         5         6         7        25     9      180.000000       17.207648         2
         5         6         7        25     9        0.000000       -0.953156         3
         5         6         7        25     9      180.000000       -0.284457         4
         5        27        26        25     9        0.000000        0.076388         1
         5        27        26        25     9      180.000000       18.872772         2
         5        27        26        25     9        0.000000       -1.670059         3
         5        27        26        25     9      180.000000       -0.377128         4
         5        27        26        40     9        0.000000        0.075182         1
         5        27        26        40     9      180.000000       14.906743         2
         5        27        26        40     9        0.000000       -0.691169         3
         5        27        26        40     9      180.000000        0.085825         4
         6         5        27        26     9        0.000000       -0.097626         1
         6         5        27        26     9      180.000000       18.802134         2
         6         5        27        26     9        0.000000       -1.614990         3
         6         5        27        26     9      180.000000       -0.392323         4
         6         5        27        41     9        0.000000        0.086682         1
         6         5        27        41     9      180.000000       14.632806         2
         6         5        27        41     9        0.000000       -0.721878         3
         6         5        27        41     9      180.000000        0.027501         4
         6         7         8         9     9        0.000000       -0.096951         1
         6         7         8         9     9      180.000000        3.845560         2
         6         7         8         9     9        0.000000       -0.637443         3
         6         7         8         9     9      180.000000        0.505060         4
         6         7        25        26     9        0.000000        0.009736         1
         6         7        25        26     9      180.000000       16.835914         2
         6         7        25        26     9        0.000000       -0.933731         3
         6         7        25        26     9      180.000000       -0.219708         4
         6         7        25        39     9        0.000000        0.042221         1
         6         7        25        39     9      180.000000       13.111511         2
         6         7        25        39     9        0.000000       -0.535863         3
         6         7        25        39     9      180.000000        0.136008         4
         7         6         5        27     9        0.000000       -0.080829         1
         7         6         5        27     9      180.000000       18.431429         2
         7         6         5        27     9        0.000000       -1.585221         3
         7         6         5        27     9      180.000000       -0.412846         4
         7         8         9        10     9        0.000000        2.791597         1
         7         8         9        10     9      180.000000        2.854338         2
         7         8         9        10     9        0.000000        0.008276         3
         7         8         9        10     9      180.000000       -0.081408         4
         7         8         9        24     9        0.000000       -1.163770         1
         7         8         9        24     9      180.000000        4.059284         2
         7         8         9        24     9        0.000000       -0.809870         3
         7         8         9        24     9      180.000000       -0.060210         4
         7        25        26        27     9        0.000000       -0.065058         1
         7        25        26        27     9      180.000000       18.729965         2
         7        25        26        27     9        0.000000       -1.425256         3
         7        25        26        27     9      180.000000       -0.471228         4
         7        25        26        40     9        0.000000        0.047456         1
         7        25        26        40     9      180.000000       14.866803         2
         7        25        26        40     9        0.000000       -0.511681         3
         7        25        26        40     9      180.000000        0.022194         4
         8         7         6        28     9        0.000000        0.241204         1
         8         7         6        28     9      180.000000       13.972061         2
         8         7         6        28     9        0.000000        0.209932         3
         8         7         6        28     9      180.000000        0.287732         4
         8         7        25        26     9        0.000000        0.691592         1
         8         7        25        26     9      180.000000       18.726699         2
         8         7        25        26     9        0.000000        0.679696         3
         8         7        25        26     9      180.000000       -0.385291         4
         8         7        25        39     9        0.000000        0.168960         1
         8         7        25        39     9      180.000000       14.166477         2
         8         7        25        39     9        0.000000        0.177158         3
         8         7        25        39     9      180.000000        0.249999         4
         8         9        10        11     9        0.000000        0.079118         1
         8         9        10        11     9      180.000000       15.943068         2
         8         9        10        11     9        0.000000        0.335160         3
         8         9        10        11     9      180.000000       -0.375931         4
         8         9        10        21     9        0.000000        0.367063         1
         8         9        10        21     9      180.000000       12.897584         2
         8         9        10        21     9        0.000000        0.264182         3
         8         9        10        21     9      180.000000       -0.062919         4
         8         9        24        23     9        0.000000        0.951283         1
         8         9        24        23     9      180.000000       29.893619         2
         8         9        24        23     9        0.000000        1.349691         3
         8         9        24        23     9      180.000000       -0.721816         4
         9         8         7        25     9        0.000000        0.084530         1
         9         8         7        25     9      180.000000        3.730263         2
         9         8         7        25     9        0.000000       -0.527888         3
         9         8         7        25     9      180.000000        0.458010         4
         9        10        11        12     9        0.000000       -1.891644         1
         9        10        11        12     9      180.000000        1.922334         2
         9        10        11        12     9        0.000000        0.305757         3
         9        10        11        12     9      180.000000       -0.046941         4
         9        10        11        29     9        0.000000        1.738829         1
         9        10        11        29     9      180.000000        1.587693         2
         9        10        11        29     9        0.000000        0.489558         3
         9        10        11        29     9      180.000000       -0.381082         4
         9        10        21        22     9        0.000000        0.030815         1
         9        10        21        22     9      180.000000       17.824404         2
         9        10        21        22     9        0.000000       -1.212316         3
         9        10        21        22     9      180.000000       -0.515062         4
         9        10        21        36     9        0.000000        0.112899         1
         9        10        21        36     9      180.000000       13.626115         2
         9        10        21        36     9        0.000000       -0.408094         3
         9        10        21        36     9      180.000000        0.036470         4
         9        24        23        22     9        0.000000        0.056121         1
         9        24        23        22     9      180.000000       22.227408         2
         9        24        23        22     9        0.000000       -1.099500         3
         9        24        23        22     9      180.000000       -0.344180         4
         9        24        23        38     9        0.000000        1.036486         1
         9        24        23        38     9      180.000000       19.807955         2
         9        24        23        38     9        0.000000        0.288466         3
         9        24        23        38     9      180.000000       -0.599441         4
        10         9        24        23     9        0.000000        0.158669         1
        10         9        24        23     9      180.000000       23.115477         2
        10         9        24        23     9        0.000000       -0.233633         3
        10         9        24        23     9      180.000000       -0.071711         4
        10        11        12        13     9        0.000000       -2.531744         1
        10        11        12        13     9      180.000000        4.872689         2
        10        11        12        13     9        0.000000       -0.696803         3
        10        11        12        13     9      180.000000       -0.176057         4
        10        11        12        14     9        0.000000        5.532904         1
        10        11        12        14     9      180.000000        6.358717         2
        10        11        12        14     9        0.000000       -0.051283         3
        10        11        12        14     9      180.000000       -0.158612         4
        10        21        22        23     9        0.000000        0.066168         1
        10        21        22        23     9      180.000000       18.396385         2
        10        21        22        23     9        0.000000       -2.102024         3
        10        21        22        23     9      180.000000       -0.535985         4
        10        21        22        37     9        0.000000        0.126273         1
        10        21        22        37     9      180.000000       15.018722         2
        10        21        22        37     9        0.000000       -0.647982         3
        10        21        22        37     9      180.000000       -0.080098         4
        11        10         9        24     9        0.000000        0.220828         1
        11        10         9        24     9      180.000000       12.478480         2
        11        10         9        24     9        0.000000       -0.109575         3
        11        10         9        24     9      180.000000       -0.329487         4
        11        10        21        22     9        0.000000        0.334774         1
        11        10        21        22     9      180.000000       18.629022         2
        11        10        21        22     9        0.000000        0.316335         3
        11        10        21        22     9      180.000000       -0.464757         4
        11        10        21        36     9        0.000000        0.246514         1
        11        10        21        36     9      180.000000       14.352632         2
        11        10        21        36     9        0.000000       -0.128549         3
        11        10        21        36     9      180.000000        0.162568         4
        11        12        14        15     9        0.000000        6.089078         1
        11        12        14        15     9      180.000000        5.522576         2
        11        12        14        15     9        0.000000       -0.059386         3
        11        12        14        15     9      180.000000       -0.058851         4
        11        12        14        30     9        0.000000        4.782917         1
        11        12        14        30     9      180.000000        6.982785         2
        11        12        14        30     9        0.000000       -0.564199         3
        11        12        14        30     9      180.000000        0.312932         4
        12        11        10        21     9        0.000000       -0.468535         1
        12        11        10        21     9      180.000000        1.875920         2
        12        11        10        21     9        0.000000       -0.412223         3
        12        11        10        21     9      180.000000        0.469219         4
        12        14        15        16     9        0.000000        0.112454         1
        12        14        15        16     9      180.000000        2.010417         2
        12        14        15        16     9        0.000000       -0.154394         3
        12        14        15        16     9      180.000000        0.287002         4
        12        14        15        20     9        0.000000        0.112454         1
        12        14        15        20     9      180.000000        2.010417         2
        12        14        15        20     9        0.000000       -0.154394         3
        12        14        15        20     9      180.000000        0.287002         4
        13        12        11        29     9        0.000000       -2.204784         1
        13        12        11        29     9      180.000000        5.153815         2
        13        12        11        29     9        0.000000       -0.121163         3
        13        12        11        29     9      180.000000       -0.071652         4
        13        12        14        15     9        0.000000       -3.460495         1
        13        12        14        15     9      180.000000        4.352032         2
        13        12        14        15     9        0.000000       -0.619983         3
        13        12        14        15     9      180.000000       -0.230249         4
        13        12        14        30     9        0.000000       -1.928212         1
        13        12        14        30     9      180.000000        5.896343         2
        13        12        14        30     9        0.000000        0.137628         3
        13        12        14        30     9      180.000000        0.130541         4
        14        12        11        29     9        0.000000        4.448996         1
        14        12        11        29     9      180.000000        6.844592         2
        14        12        11        29     9        0.000000       -0.391997         3
        14        12        11        29     9      180.000000        0.190844         4
        14        15        16        17     9        0.000000        0.415708         1
        14        15        16        17     9      180.000000       16.759726         2
        14        15        16        17     9        0.000000        0.223929         3
        14        15        16        17     9      180.000000       -0.214679         4
        14        15        16        31     9        0.000000       -0.119007         1
        14        15        16        31     9      180.000000       13.665049         2
        14        15        16        31     9        0.000000       -0.202067         3
        14        15        16        31     9      180.000000        0.227665         4
        14        15        20        19     9        0.000000        0.415708         1
        14        15        20        19     9      180.000000       16.759726         2
        14        15        20        19     9        0.000000        0.223929         3
        14        15        20        19     9      180.000000       -0.214679         4
        14        15        20        35     9        0.000000       -0.119008         1
        14        15        20        35     9      180.000000       13.665048         2
        14        15        20        35     9        0.000000       -0.202067         3
        14        15        20        35     9      180.000000        0.227665         4
        15        16        17        18     9        0.000000        0.073482         1
        15        16        17        18     9      180.000000       18.663633         2
        15        16        17        18     9        0.000000       -1.625364         3
        15        16        17        18     9      180.000000       -0.492492         4
        15        16        17        32     9        0.000000        0.070651         1
        15        16        17        32     9      180.000000       14.986027         2
        15        16        17        32     9        0.000000       -0.538499         3
        15        16        17        32     9      180.000000       -0.026593         4
        15        20        19        18     9        0.000000        0.073482         1
        15        20        19        18     9      180.000000       18.663633         2
        15        20        19        18     9        0.000000       -1.625364         3
        15        20        19        18     9      180.000000       -0.492492         4
        15        20        19        34     9        0.000000        0.070651         1
        15        20        19        34     9      180.000000       14.986027         2
        15        20        19        34     9        0.000000       -0.538499         3
        15        20        19        34     9      180.000000       -0.026593         4
        16        15        14        30     9        0.000000        0.012158         1
        16        15        14        30     9      180.000000        2.425817         2
        16        15        14        30     9        0.000000       -0.035644         3
        16        15        14        30     9      180.000000       -0.162154         4
        16        15        20        19     9        0.000000        0.060775         1
        16        15        20        19     9      180.000000       16.237991         2
        16        15        20        19     9        0.000000       -1.032374         3
        16        15        20        19     9      180.000000       -0.147577         4
        16        15        20        35     9        0.000000        0.211389         1
        16        15        20        35     9      180.000000       12.926100         2
        16        15        20        35     9        0.000000       -0.464841         3
        16        15        20        35     9      180.000000        0.125744         4
        16        17        18        19     9        0.000000        0.066272         1
        16        17        18        19     9      180.000000       18.350428         2
        16        17        18        19     9        0.000000       -1.597312         3
        16        17        18        19     9      180.000000       -0.374022         4
        16        17        18        33     9        0.000000        0.091198         1
        16        17        18        33     9      180.000000       14.251423         2
        16        17        18        33     9        0.000000       -0.740455         3
        16        17        18        33     9      180.000000        0.122765         4
        17        16        15        20     9        0.000000        0.060775         1
        17        16        15        20     9      180.000000       16.237991         2
        17        16        15        20     9        0.000000       -1.032374         3
        17        16        15        20     9      180.000000       -0.147577         4
        17        18        19        20     9        0.000000        0.066272         1
        17        18        19        20     9      180.000000       18.350428         2
        17        18        19        20     9        0.000000       -1.597312         3
        17        18        19        20     9      180.000000       -0.374022         4
        17        18        19        34     9        0.000000        0.010079         1
        17        18        19        34     9      180.000000       14.368681         2
        17        18        19        34     9        0.000000       -0.776102         3
        17        18        19        34     9      180.000000        0.163060         4
        18        17        16        31     9        0.000000        0.013570         1
        18        17        16        31     9      180.000000       14.779613         2
        18        17        16        31     9        0.000000       -0.591364         3
        18        17        16        31     9      180.000000        0.141885         4
        18        19        20        35     9        0.000000        0.013570         1
        18        19        20        35     9      180.000000       14.779615         2
        18        19        20        35     9        0.000000       -0.591364         3
        18        19        20        35     9      180.000000        0.141885         4
        19        18        17        32     9        0.000000        0.010079         1
        19        18        17        32     9      180.000000       14.368681         2
        19        18        17        32     9        0.000000       -0.776102         3
        19        18        17        32     9      180.000000        0.163060         4
        20        15        14        30     9        0.000000        0.012158         1
        20        15        14        30     9      180.000000        2.425817         2
        20        15        14        30     9        0.000000       -0.035644         3
        20        15        14        30     9      180.000000       -0.162154         4
        20        15        16        31     9        0.000000        0.211389         1
        20        15        16        31     9      180.000000       12.926100         2
        20        15        16        31     9        0.000000       -0.464841         3
        20        15        16        31     9      180.000000        0.125744         4
        20        19        18        33     9        0.000000        0.091198         1
        20        19        18        33     9      180.000000       14.251423         2
        20        19        18        33     9        0.000000       -0.740455         3
        20        19        18        33     9      180.000000        0.122765         4
        21        10         9        24     9        0.000000        0.040752         1
        21        10         9        24     9      180.000000       10.972651         2
        21        10         9        24     9        0.000000       -0.517360         3
        21        10         9        24     9      180.000000       -0.118747         4
        21        10        11        29     9        0.000000        0.403978         1
        21        10        11        29     9      180.000000        2.149404         2
        21        10        11        29     9        0.000000        0.432386         3
        21        10        11        29     9      180.000000       -0.165766         4
        21        22        23        24     9        0.000000        0.100604         1
        21        22        23        24     9      180.000000       20.168022         2
        21        22        23        24     9        0.000000       -1.195335         3
        21        22        23        24     9      180.000000       -0.567771         4
        21        22        23        38     9        0.000000        0.082489         1
        21        22        23        38     9      180.000000       14.362336         2
        21        22        23        38     9        0.000000       -0.749614         3
        21        22        23        38     9      180.000000        0.097547         4
        23        22        21        36     9        0.000000        0.167049         1
        23        22        21        36     9      180.000000       14.479790         2
        23        22        21        36     9        0.000000       -0.751910         3
        23        22        21        36     9      180.000000        0.148426         4
        24        23        22        37     9        0.000000        0.174483         1
        24        23        22        37     9      180.000000       15.688095         2
        24        23        22        37     9        0.000000       -0.259874         3
        24        23        22        37     9      180.000000       -0.156477         4
        25         7         6        28     9        0.000000        0.056010         1
        25         7         6        28     9      180.000000       12.890448         2
        25         7         6        28     9        0.000000       -0.522917         3
        25         7         6        28     9      180.000000        0.185411         4
        25        26        27        41     9        0.000000        0.117525         1
        25        26        27        41     9      180.000000       14.934186         2
        25        26        27        41     9        0.000000       -0.834549         3
        25        26        27        41     9      180.000000        0.101174         4
        27         5         6        28     9        0.000000        0.048363         1
        27         5         6        28     9      180.000000       14.235145         2
        27         5         6        28     9        0.000000       -0.596556         3
        27         5         6        28     9      180.000000        0.051989         4
        27        26        25        39     9        0.000000        0.108182         1
        27        26        25        39     9      180.000000       14.195930         2
        27        26        25        39     9        0.000000       -0.624027         3
        27        26        25        39     9      180.000000        0.118249         4
        31        16        17        32     9        0.000000       -0.109372         1
        31        16        17        32     9      180.000000       12.062116         2
        31        16        17        32     9        0.000000       -0.615191         3
        31        16        17        32     9      180.000000        0.280198         4
        32        17        18        33     9        0.000000       -0.073859         1
        32        17        18        33     9      180.000000       11.527571         2
        32        17        18        33     9        0.000000       -0.552570         3
        32        17        18        33     9      180.000000        0.268709         4
        33        18        19        34     9        0.000000       -0.073859         1
        33        18        19        34     9      180.000000       11.527570         2
        33        18        19        34     9        0.000000       -0.552570         3
        33        18        19        34     9      180.000000        0.268709         4
        34        19        20        35     9        0.000000       -0.109372         1
        34        19        20        35     9      180.000000       12.062116         2
        34        19        20        35     9        0.000000       -0.615191         3
        34        19        20        35     9      180.000000        0.280198         4
        36        21        22        37     9        0.000000       -0.114528         1
        36        21        22        37     9      180.000000       11.840299         2
        36        21        22        37     9        0.000000       -0.671560         3
        36        21        22        37     9      180.000000        0.313357         4
        37        22        23        38     9        0.000000       -0.153197         1
        37        22        23        38     9      180.000000       12.054830         2
        37        22        23        38     9        0.000000       -0.693173         3
        37        22        23        38     9      180.000000        0.290660         4
        39        25        26        40     9        0.000000       -0.117711         1
        39        25        26        40     9      180.000000       11.992923         2
        39        25        26        40     9        0.000000       -0.643509         3
        39        25        26        40     9      180.000000        0.217301         4
        40        26        27        41     9        0.000000       -0.153393         1
        40        26        27        41     9      180.000000       11.890618         2
        40        26        27        41     9        0.000000       -0.780758         3
        40        26        27        41     9      180.000000        0.311358         4

[ dihedrals ] ; impropers
;       ai        aj        ak        al funct           phase               k        pn
         6         5         7        28     4      180.000000        0.020953         2
         6         7        28         5     4      180.000000        0.020953         2
         6        28         5         7     4      180.000000        0.020953         2
        12        11        13        14     4      180.000000       20.276479         2
        12        13        14        11     4      180.000000       20.276479         2
        12        14        11        13     4      180.000000       20.276479         2
        23        22        24        38     4      180.000000        0.546115         2
        23        24        38        22     4      180.000000        0.546115         2
        23        38        22        24     4      180.000000        0.546115         2
        25         7        26        39     4      180.000000        0.552125         2
        25        26        39         7     4      180.000000        0.552125         2
        25        39         7        26     4      180.000000        0.552125         2
        26        25        27        40     4      180.000000        1.974817         2
        26        27        40        25     4      180.000000        1.974817         2
        26        40        25        27     4      180.000000        1.974817         2

[ pairs ]
;       ai        aj funct
         1         6     1
         1        27     1
         2         7     1
         2        26     1
         2        28     1
         2        41     1
         3         6     1
         3        27     1
         4         6     1
         4        27     1
         5         8     1
         5        25     1
         5        40     1
         6         9     1
         6        26     1
         6        39     1
         6        41     1
         7        10     1
         7        24     1
         7        27     1
         7        40     1
         8        11     1
         8        21     1
         8        23     1
         8        26     1
         8        28     1
         8        39     1
         9        12     1
         9        22     1
         9        25     1
         9        29     1
         9        36     1
         9        38     1
        10        13     1
        10        14     1
        10        23     1
        10        37     1
        11        15     1
        11        22     1
        11        24     1
        11        30     1
        11        36     1
        12        16     1
        12        20     1
        12        21     1
        13        15     1
        13        29     1
        13        30     1
        14        17     1
        14        19     1
        14        29     1
        14        31     1
        14        35     1
        15        18     1
        15        32     1
        15        34     1
        16        19     1
        16        30     1
        16        33     1
        16        35     1
        17        20     1
        17        34     1
        18        31     1
        18        35     1
        19        32     1
        20        30     1
        20        31     1
        20        33     1
        21        24     1
        21        29     1
        21        38     1
        23        36     1
        24        37     1
        25        28     1
        25        41     1
        27        28     1
        27        39     1
        31        32     1
        32        33     1
        33        34     1
        34        35     1
        36        37     1
        37        38     1
        39        40     1
        40        41     1
