; ITP file created by ByteFF-ML, 2025-12-06 04:49:32.244650

[ atomtypes ]
;name           bonded.type        at.num        mass        charge   ptype           sigma         epsilon
 f0bf                                   9      0.0000       0.00000       A     3.03451e-01     3.47961e-01
 c1bf                                   6      0.0000       0.00000       A     3.39851e-01     4.48847e-01
 f2bf                                   9      0.0000       0.00000       A     3.03451e-01     3.47961e-01
 f3bf                                   9      0.0000       0.00000       A     3.03451e-01     3.47961e-01
 c4bf                                   6      0.0000       0.00000       A     3.31621e-01     4.13384e-01
 c5bf                                   6      0.0000       0.00000       A     3.31475e-01     4.13159e-01
 c6bf                                   6      0.0000       0.00000       A     3.31584e-01     4.14956e-01
 o7bf                                   8      0.0000       0.00000       A     3.15756e-01     3.08030e-01
 c8bf                                   6      0.0000       0.00000       A     3.31241e-01     4.10680e-01
 c9bf                                   6      0.0000       0.00000       A     3.31219e-01     4.13182e-01
 n10bf                                  7      0.0000       0.00000       A     3.26853e-01     4.96156e-01
 c11bf                                  6      0.0000       0.00000       A     3.31228e-01     4.15270e-01
 o12bf                                  8      0.0000       0.00000       A     3.04781e-01     6.14498e-01
 n13bf                                  7      0.0000       0.00000       A     3.26977e-01     4.92628e-01
 c14bf                                  6      0.0000       0.00000       A     3.31373e-01     4.12104e-01
 c15bf                                  6      0.0000       0.00000       A     3.31420e-01     4.13832e-01
 f16bf                                  9      0.0000       0.00000       A     3.03288e-01     3.48698e-01
 c17bf                                  6      0.0000       0.00000       A     3.31471e-01     4.12961e-01
 c18bf                                  6      0.0000       0.00000       A     3.31478e-01     4.12858e-01
 c19bf                                  6      0.0000       0.00000       A     3.31491e-01     4.13061e-01
 c20bf                                  6      0.0000       0.00000       A     3.31564e-01     4.12515e-01
 c21bf                                  6      0.0000       0.00000       A     3.31584e-01     4.13224e-01
 c22bf                                  6      0.0000       0.00000       A     3.31481e-01     4.12981e-01
 c23bf                                  6      0.0000       0.00000       A     3.31514e-01     4.12560e-01
 n24bf                                  7      0.0000       0.00000       A     3.38247e-01     3.91955e-01
 c25bf                                  6      0.0000       0.00000       A     3.31510e-01     4.13886e-01
 c26bf                                  6      0.0000       0.00000       A     3.31532e-01     4.13738e-01
 c27bf                                  6      0.0000       0.00000       A     3.31502e-01     4.12745e-01
 h28bf                                  1      0.0000       0.00000       A     2.62520e-01     6.72073e-02
 h29bf                                  1      0.0000       0.00000       A     1.10974e-01     4.12520e-02
 h30bf                                  1      0.0000       0.00000       A     1.10655e-01     4.19367e-02
 h31bf                                  1      0.0000       0.00000       A     2.62524e-01     6.71307e-02
 h32bf                                  1      0.0000       0.00000       A     2.62469e-01     6.71339e-02
 h33bf                                  1      0.0000       0.00000       A     2.62480e-01     6.73318e-02
 h34bf                                  1      0.0000       0.00000       A     2.62606e-01     6.73685e-02
 h35bf                                  1      0.0000       0.00000       A     2.62621e-01     6.73062e-02
 h36bf                                  1      0.0000       0.00000       A     2.62506e-01     6.74387e-02
 h37bf                                  1      0.0000       0.00000       A     2.53538e-01     6.71594e-02
 h38bf                                  1      0.0000       0.00000       A     2.62525e-01     6.72408e-02
 h39bf                                  1      0.0000       0.00000       A     2.62527e-01     6.72711e-02
 h40bf                                  1      0.0000       0.00000       A     2.62655e-01     6.75361e-02

[ moleculetype ]
;name             nrexcl
 6b                    3

[ atoms ]
;       nr            type      resi   res      atom      cgnr      charge          mass ; qtot
         1            f0bf         1   UNL        f0         1    -0.10409       18.9980 ; qtot   -0.104
         2            c1bf         1   UNL        c1         2     0.33660       12.0110 ; qtot    0.233
         3            f2bf         1   UNL        f2         3    -0.10409       18.9980 ; qtot    0.128
         4            f3bf         1   UNL        f3         4    -0.10409       18.9980 ; qtot    0.024
         5            c4bf         1   UNL        c4         5    -0.16367       12.0110 ; qtot   -0.139
         6            c5bf         1   UNL        c5         6    -0.06086       12.0110 ; qtot   -0.200
         7            c6bf         1   UNL        c6         7     0.11228       12.0110 ; qtot   -0.088
         8            o7bf         1   UNL        o7         8    -0.38334       15.9990 ; qtot   -0.471
         9            c8bf         1   UNL        c8         9     0.51952       12.0110 ; qtot    0.048
        10            c9bf         1   UNL        c9        10    -0.06788       12.0110 ; qtot   -0.020
        11           n10bf         1   UNL       n10        11    -0.14979       14.0070 ; qtot   -0.169
        12           c11bf         1   UNL       c11        12     0.66117       12.0110 ; qtot    0.492
        13           o12bf         1   UNL       o12        13    -0.59150       15.9990 ; qtot   -0.100
        14           n13bf         1   UNL       n13        14    -0.16113       14.0070 ; qtot   -0.261
        15           c14bf         1   UNL       c14        15    -0.04927       12.0110 ; qtot   -0.310
        16           c15bf         1   UNL       c15        16     0.11620       12.0110 ; qtot   -0.194
        17           f16bf         1   UNL       f16        17    -0.18601       18.9980 ; qtot   -0.380
        18           c17bf         1   UNL       c17        18    -0.12245       12.0110 ; qtot   -0.502
        19           c18bf         1   UNL       c18        19    -0.10341       12.0110 ; qtot   -0.606
        20           c19bf         1   UNL       c19        20    -0.09970       12.0110 ; qtot   -0.706
        21           c20bf         1   UNL       c20        21    -0.12061       12.0110 ; qtot   -0.826
        22           c21bf         1   UNL       c21        22    -0.08259       12.0110 ; qtot   -0.909
        23           c22bf         1   UNL       c22        23    -0.15962       12.0110 ; qtot   -1.068
        24           c23bf         1   UNL       c23        24     0.34178       12.0110 ; qtot   -0.727
        25           n24bf         1   UNL       n24        25    -0.70598       14.0070 ; qtot   -1.433
        26           c25bf         1   UNL       c25        26    -0.11065       12.0110 ; qtot   -1.543
        27           c26bf         1   UNL       c26        27    -0.09237       12.0110 ; qtot   -1.636
        28           c27bf         1   UNL       c27        28    -0.07766       12.0110 ; qtot   -1.713
        29           h28bf         1   UNL       h28        29     0.14610        1.0080 ; qtot   -1.567
        30           h29bf         1   UNL       h29        30     0.17579        1.0080 ; qtot   -1.391
        31           h30bf         1   UNL       h30        31     0.16511        1.0080 ; qtot   -1.226
        32           h31bf         1   UNL       h31        32     0.13748        1.0080 ; qtot   -1.089
        33           h32bf         1   UNL       h32        33     0.12145        1.0080 ; qtot   -0.967
        34           h33bf         1   UNL       h33        34     0.12060        1.0080 ; qtot   -0.847
        35           h34bf         1   UNL       h34        35     0.14612        1.0080 ; qtot   -0.701
        36           h35bf         1   UNL       h35        36     0.15134        1.0080 ; qtot   -0.549
        37           h36bf         1   UNL       h36        37     0.12997        1.0080 ; qtot   -0.419
        38           h37bf         1   UNL       h37        38     0.02910        1.0080 ; qtot   -0.390
        39           h38bf         1   UNL       h38        39     0.13259        1.0080 ; qtot   -0.258
        40           h39bf         1   UNL       h39        40     0.12498        1.0080 ; qtot   -0.133
        41           h40bf         1   UNL       h40        41     0.13258        1.0080 ; qtot    0.000

[ bonds ]
;       ai        aj funct               r               k
         1         2     1        0.135848   221750.237939
         2         3     1        0.135848   221750.237939
         2         4     1        0.135848   221750.237939
         2         5     1        0.150642   194411.357812
         5         6     1        0.139683   306929.649316
         5        28     1        0.139893   298842.506445
         6         7     1        0.139458   302119.734766
         6        29     1        0.108435   325508.739111
         7         8     1        0.139076   226098.952295
         7        26     1        0.139507   300349.451270
         8         9     1        0.137972   227076.921436
         9        10     1        0.141455   241784.559912
         9        25     1        0.131650   340496.647363
        10        11     1        0.140423   262254.059766
        10        22     1        0.139669   302796.953369
        11        12     1        0.138736   242389.099902
        11        30     1        0.101419   408858.186768
        12        13     1        0.122634   597571.730273
        12        14     1        0.139043   236995.202734
        14        15     1        0.140686   255764.160937
        14        31     1        0.101162   417452.675391
        15        16     1        0.140346   266845.836328
        15        21     1        0.140418   286633.878418
        16        17     1        0.136305   277623.824414
        16        18     1        0.138645   321314.932861
        18        19     1        0.139926   308678.813623
        18        32     1        0.108495   324254.381836
        19        20     1        0.139801   307304.329785
        19        33     1        0.108547   322706.015820
        20        21     1        0.139714   318260.056152
        20        34     1        0.108573   321177.824121
        21        35     1        0.108214   330118.136279
        22        23     1        0.140003   313082.713672
        22        36     1        0.108193   330892.421436
        23        24     1        0.139139   305686.170850
        23        37     1        0.108503   324361.765381
        24        25     1        0.134429   311714.895020
        24        38     1        0.108728   317581.203174
        26        27     1        0.139703   315002.338184
        26        39     1        0.108471   324023.654053
        27        28     1        0.139776   311431.637402
        27        40     1        0.108575   321535.088281
        28        41     1        0.108475   324244.422363

[ angles ]
;       ai        aj        ak funct           theta             cth
         1         2         3     1      106.673416      701.102313
         1         2         4     1      106.673416      701.102313
         1         2         5     1      111.963486      590.221141
         2         5         6     1      119.258873      488.824389
         2         5        28     1      119.563637      526.853294
         3         2         4     1      106.673416      701.102313
         3         2         5     1      111.963486      590.221141
         4         2         5     1      111.963486      590.221141
         5         6         7     1      118.906960      675.205641
         5         6        29     1      121.073891      390.436642
         5        28        27     1      119.033890      671.258051
         5        28        41     1      120.217079      418.336221
         6         5        28     1      120.920876      664.961110
         6         7         8     1      119.127602      475.579886
         6         7        26     1      121.136398      642.560405
         7         6        29     1      119.610718      415.840160
         7         8         9     1      118.996475      468.152929
         7        26        27     1      119.077614      700.722384
         7        26        39     1      119.664551      413.801469
         8         7        26     1      119.560463      505.160382
         8         9        10     1      116.891190      365.084836
         8         9        25     1      119.251526      575.307278
         9        10        11     1      117.626175      431.158851
         9        10        22     1      116.875977      643.692976
         9        25        24     1      118.202881      715.701240
        10         9        25     1      124.298561      669.115487
        10        11        12     1      126.219688      451.027839
        10        11        30     1      114.048378      434.130349
        10        22        23     1      118.717087      830.537407
        10        22        36     1      119.480087      442.212844
        11        10        22     1      125.502136      569.232191
        11        12        13     1      124.056229      550.030073
        11        12        14     1      112.700821      550.207236
        12        11        30     1      117.654404      437.032322
        12        14        15     1      126.206764      475.322568
        12        14        31     1      116.933777      448.974623
        13        12        14     1      124.329651      554.576253
        14        15        16     1      117.675636      462.702735
        14        15        21     1      124.796875      609.448861
        15        14        31     1      114.869484      445.626645
        15        16        17     1      117.901474      404.343513
        15        16        18     1      122.945572      614.192698
        15        21        20     1      120.191086      755.136091
        15        21        35     1      118.987816      454.802830
        16        15        21     1      117.542435      495.361857
        16        18        19     1      118.903343      691.975605
        16        18        32     1      119.088882      441.338294
        17        16        18     1      119.022118      554.693021
        18        19        20     1      119.706322      648.567116
        18        19        33     1      119.763626      434.919190
        19        18        32     1      121.924843      433.954589
        19        20        21     1      120.817978      688.934391
        19        20        34     1      120.143295      444.039577
        20        19        33     1      120.552856      429.680348
        20        21        35     1      121.008507      390.327024
        21        20        34     1      119.090698      439.622455
        22        23        24     1      119.055466      724.682960
        22        23        37     1      120.423485      439.039411
        23        22        36     1      121.786972      385.096960
        23        24        25     1      122.499290      661.638094
        23        24        38     1      121.265182      408.189083
        24        23        37     1      120.600418      442.820723
        25        24        38     1      116.190018      392.705071
        26        27        28     1      120.545677      713.667337
        26        27        40     1      119.583778      428.611077
        27        26        39     1      121.394608      418.058218
        27        28        41     1      120.676865      426.254289
        28        27        40     1      119.880020      433.195531

[ dihedrals ] ; propers for gromacs 4.5 or higher, use funct 9
;       ai        aj        ak        al funct           phase               k        pn
         1         2         5         6     9        0.000000       -0.056845         1
         1         2         5         6     9      180.000000        0.147564         2
         1         2         5         6     9        0.000000        0.094344         3
         1         2         5         6     9      180.000000        0.023205         4
         1         2         5        28     9        0.000000       -0.024666         1
         1         2         5        28     9      180.000000        0.065951         2
         1         2         5        28     9        0.000000        0.107954         3
         1         2         5        28     9      180.000000        0.013499         4
         2         5         6         7     9        0.000000        0.215367         1
         2         5         6         7     9      180.000000       15.224711         2
         2         5         6         7     9        0.000000        0.160889         3
         2         5         6         7     9      180.000000       -0.294407         4
         2         5         6        29     9        0.000000        0.062054         1
         2         5         6        29     9      180.000000       12.135615         2
         2         5         6        29     9        0.000000       -0.273581         3
         2         5         6        29     9      180.000000        0.098556         4
         2         5        28        27     9        0.000000        0.052564         1
         2         5        28        27     9      180.000000       15.093531         2
         2         5        28        27     9        0.000000       -0.022061         3
         2         5        28        27     9      180.000000       -0.279823         4
         2         5        28        41     9        0.000000        0.021646         1
         2         5        28        41     9      180.000000       12.001621         2
         2         5        28        41     9        0.000000       -0.324659         3
         2         5        28        41     9      180.000000        0.133723         4
         3         2         5         6     9        0.000000       -0.056845         1
         3         2         5         6     9      180.000000        0.147564         2
         3         2         5         6     9        0.000000        0.094344         3
         3         2         5         6     9      180.000000        0.023205         4
         3         2         5        28     9        0.000000       -0.024666         1
         3         2         5        28     9      180.000000        0.065951         2
         3         2         5        28     9        0.000000        0.107954         3
         3         2         5        28     9      180.000000        0.013499         4
         4         2         5         6     9        0.000000       -0.056845         1
         4         2         5         6     9      180.000000        0.147564         2
         4         2         5         6     9        0.000000        0.094344         3
         4         2         5         6     9      180.000000        0.023205         4
         4         2         5        28     9        0.000000       -0.024666         1
         4         2         5        28     9      180.000000        0.065951         2
         4         2         5        28     9        0.000000        0.107954         3
         4         2         5        28     9      180.000000        0.013499         4
         5         6         7         8     9        0.000000        0.461178         1
         5         6         7         8     9      180.000000       18.685890         2
         5         6         7         8     9        0.000000        0.578921         3
         5         6         7         8     9      180.000000       -0.438095         4
         5         6         7        26     9        0.000000        0.131992         1
         5         6         7        26     9      180.000000       17.207648         2
         5         6         7        26     9        0.000000       -0.953156         3
         5         6         7        26     9      180.000000       -0.284457         4
         5        28        27        26     9        0.000000        0.076388         1
         5        28        27        26     9      180.000000       18.872772         2
         5        28        27        26     9        0.000000       -1.670059         3
         5        28        27        26     9      180.000000       -0.377128         4
         5        28        27        40     9        0.000000        0.075182         1
         5        28        27        40     9      180.000000       14.906743         2
         5        28        27        40     9        0.000000       -0.691169         3
         5        28        27        40     9      180.000000        0.085825         4
         6         5        28        27     9        0.000000       -0.097626         1
         6         5        28        27     9      180.000000       18.802134         2
         6         5        28        27     9        0.000000       -1.614990         3
         6         5        28        27     9      180.000000       -0.392323         4
         6         5        28        41     9        0.000000        0.086682         1
         6         5        28        41     9      180.000000       14.632806         2
         6         5        28        41     9        0.000000       -0.721878         3
         6         5        28        41     9      180.000000        0.027501         4
         6         7         8         9     9        0.000000       -0.096951         1
         6         7         8         9     9      180.000000        3.845560         2
         6         7         8         9     9        0.000000       -0.637443         3
         6         7         8         9     9      180.000000        0.505060         4
         6         7        26        27     9        0.000000        0.009736         1
         6         7        26        27     9      180.000000       16.835914         2
         6         7        26        27     9        0.000000       -0.933731         3
         6         7        26        27     9      180.000000       -0.219708         4
         6         7        26        39     9        0.000000        0.042221         1
         6         7        26        39     9      180.000000       13.111511         2
         6         7        26        39     9        0.000000       -0.535863         3
         6         7        26        39     9      180.000000        0.136008         4
         7         6         5        28     9        0.000000       -0.080829         1
         7         6         5        28     9      180.000000       18.431429         2
         7         6         5        28     9        0.000000       -1.585221         3
         7         6         5        28     9      180.000000       -0.412846         4
         7         8         9        10     9        0.000000        2.791597         1
         7         8         9        10     9      180.000000        2.854338         2
         7         8         9        10     9        0.000000        0.008276         3
         7         8         9        10     9      180.000000       -0.081408         4
         7         8         9        25     9        0.000000       -1.163770         1
         7         8         9        25     9      180.000000        4.059284         2
         7         8         9        25     9        0.000000       -0.809870         3
         7         8         9        25     9      180.000000       -0.060210         4
         7        26        27        28     9        0.000000       -0.065058         1
         7        26        27        28     9      180.000000       18.729965         2
         7        26        27        28     9        0.000000       -1.425256         3
         7        26        27        28     9      180.000000       -0.471228         4
         7        26        27        40     9        0.000000        0.047456         1
         7        26        27        40     9      180.000000       14.866803         2
         7        26        27        40     9        0.000000       -0.511681         3
         7        26        27        40     9      180.000000        0.022194         4
         8         7         6        29     9        0.000000        0.241204         1
         8         7         6        29     9      180.000000       13.972061         2
         8         7         6        29     9        0.000000        0.209932         3
         8         7         6        29     9      180.000000        0.287732         4
         8         7        26        27     9        0.000000        0.691592         1
         8         7        26        27     9      180.000000       18.726699         2
         8         7        26        27     9        0.000000        0.679696         3
         8         7        26        27     9      180.000000       -0.385291         4
         8         7        26        39     9        0.000000        0.168960         1
         8         7        26        39     9      180.000000       14.166477         2
         8         7        26        39     9        0.000000        0.177158         3
         8         7        26        39     9      180.000000        0.249999         4
         8         9        10        11     9        0.000000        0.079118         1
         8         9        10        11     9      180.000000       15.943068         2
         8         9        10        11     9        0.000000        0.335160         3
         8         9        10        11     9      180.000000       -0.375931         4
         8         9        10        22     9        0.000000        0.367062         1
         8         9        10        22     9      180.000000       12.897585         2
         8         9        10        22     9        0.000000        0.264182         3
         8         9        10        22     9      180.000000       -0.062919         4
         8         9        25        24     9        0.000000        0.951283         1
         8         9        25        24     9      180.000000       29.893619         2
         8         9        25        24     9        0.000000        1.349691         3
         8         9        25        24     9      180.000000       -0.721816         4
         9         8         7        26     9        0.000000        0.084530         1
         9         8         7        26     9      180.000000        3.730263         2
         9         8         7        26     9        0.000000       -0.527888         3
         9         8         7        26     9      180.000000        0.458010         4
         9        10        11        12     9        0.000000       -1.674583         1
         9        10        11        12     9      180.000000        1.888940         2
         9        10        11        12     9        0.000000        0.296416         3
         9        10        11        12     9      180.000000       -0.062635         4
         9        10        11        30     9        0.000000        1.738829         1
         9        10        11        30     9      180.000000        1.587693         2
         9        10        11        30     9        0.000000        0.489558         3
         9        10        11        30     9      180.000000       -0.381082         4
         9        10        22        23     9        0.000000        0.030817         1
         9        10        22        23     9      180.000000       17.824404         2
         9        10        22        23     9        0.000000       -1.212316         3
         9        10        22        23     9      180.000000       -0.515062         4
         9        10        22        36     9        0.000000        0.112899         1
         9        10        22        36     9      180.000000       13.626117         2
         9        10        22        36     9        0.000000       -0.408094         3
         9        10        22        36     9      180.000000        0.036469         4
         9        25        24        23     9        0.000000        0.056121         1
         9        25        24        23     9      180.000000       22.227408         2
         9        25        24        23     9        0.000000       -1.099500         3
         9        25        24        23     9      180.000000       -0.344180         4
         9        25        24        38     9        0.000000        1.036486         1
         9        25        24        38     9      180.000000       19.807955         2
         9        25        24        38     9        0.000000        0.288466         3
         9        25        24        38     9      180.000000       -0.599441         4
        10         9        25        24     9        0.000000        0.158669         1
        10         9        25        24     9      180.000000       23.115477         2
        10         9        25        24     9        0.000000       -0.233633         3
        10         9        25        24     9      180.000000       -0.071711         4
        10        11        12        13     9        0.000000       -2.527557         1
        10        11        12        13     9      180.000000        4.982852         2
        10        11        12        13     9        0.000000       -0.700781         3
        10        11        12        13     9      180.000000       -0.190937         4
        10        11        12        14     9        0.000000        5.652654         1
        10        11        12        14     9      180.000000        6.637302         2
        10        11        12        14     9        0.000000        0.065031         3
        10        11        12        14     9      180.000000       -0.204078         4
        10        22        23        24     9        0.000000        0.066168         1
        10        22        23        24     9      180.000000       18.396385         2
        10        22        23        24     9        0.000000       -2.102023         3
        10        22        23        24     9      180.000000       -0.535985         4
        10        22        23        37     9        0.000000        0.126273         1
        10        22        23        37     9      180.000000       15.018723         2
        10        22        23        37     9        0.000000       -0.647982         3
        10        22        23        37     9      180.000000       -0.080098         4
        11        10         9        25     9        0.000000        0.220828         1
        11        10         9        25     9      180.000000       12.478480         2
        11        10         9        25     9        0.000000       -0.109575         3
        11        10         9        25     9      180.000000       -0.329487         4
        11        10        22        23     9        0.000000        0.334774         1
        11        10        22        23     9      180.000000       18.629022         2
        11        10        22        23     9        0.000000        0.316335         3
        11        10        22        23     9      180.000000       -0.464757         4
        11        10        22        36     9        0.000000        0.246514         1
        11        10        22        36     9      180.000000       14.352632         2
        11        10        22        36     9        0.000000       -0.128549         3
        11        10        22        36     9      180.000000        0.162568         4
        11        12        14        15     9        0.000000        5.700629         1
        11        12        14        15     9      180.000000        6.167810         2
        11        12        14        15     9        0.000000       -0.005908         3
        11        12        14        15     9      180.000000       -0.082578         4
        11        12        14        31     9        0.000000        4.935767         1
        11        12        14        31     9      180.000000        6.793673         2
        11        12        14        31     9        0.000000       -0.414756         3
        11        12        14        31     9      180.000000        0.171770         4
        12        11        10        22     9        0.000000       -0.418977         1
        12        11        10        22     9      180.000000        1.868920         2
        12        11        10        22     9        0.000000       -0.411079         3
        12        11        10        22     9      180.000000        0.466012         4
        12        14        15        16     9        0.000000       -1.676127         1
        12        14        15        16     9      180.000000        2.175796         2
        12        14        15        16     9        0.000000        0.357675         3
        12        14        15        16     9      180.000000       -0.160081         4
        12        14        15        21     9        0.000000       -0.003631         1
        12        14        15        21     9      180.000000        2.087415         2
        12        14        15        21     9        0.000000       -0.408063         3
        12        14        15        21     9      180.000000        0.236376         4
        13        12        11        30     9        0.000000       -2.197596         1
        13        12        11        30     9      180.000000        5.206707         2
        13        12        11        30     9        0.000000       -0.156254         3
        13        12        11        30     9      180.000000       -0.061739         4
        13        12        14        15     9        0.000000       -3.470801         1
        13        12        14        15     9      180.000000        4.865082         2
        13        12        14        15     9        0.000000       -0.720330         3
        13        12        14        15     9      180.000000       -0.211423         4
        13        12        14        31     9        0.000000       -2.070061         1
        13        12        14        31     9      180.000000        5.396444         2
        13        12        14        31     9        0.000000        0.007260         3
        13        12        14        31     9      180.000000        0.005756         4
        14        12        11        30     9        0.000000        4.520113         1
        14        12        11        30     9      180.000000        6.955878         2
        14        12        11        30     9        0.000000       -0.244708         3
        14        12        11        30     9      180.000000        0.130108         4
        14        15        16        17     9        0.000000        0.153460         1
        14        15        16        17     9      180.000000       20.139536         2
        14        15        16        17     9        0.000000        0.443118         3
        14        15        16        17     9      180.000000       -0.692113         4
        14        15        16        18     9        0.000000        0.061317         1
        14        15        16        18     9      180.000000       13.702676         2
        14        15        16        18     9        0.000000       -0.050674         3
        14        15        16        18     9      180.000000       -0.100946         4
        14        15        21        20     9        0.000000        0.317239         1
        14        15        21        20     9      180.000000       17.365446         2
        14        15        21        20     9        0.000000        0.255352         3
        14        15        21        20     9      180.000000       -0.277317         4
        14        15        21        35     9        0.000000       -0.057924         1
        14        15        21        35     9      180.000000       13.874109         2
        14        15        21        35     9        0.000000       -0.100763         3
        14        15        21        35     9      180.000000        0.198937         4
        15        16        18        19     9        0.000000        0.028817         1
        15        16        18        19     9      180.000000       17.321871         2
        15        16        18        19     9        0.000000       -1.267011         3
        15        16        18        19     9      180.000000       -0.241373         4
        15        16        18        32     9        0.000000        0.085666         1
        15        16        18        32     9      180.000000       12.755344         2
        15        16        18        32     9        0.000000       -0.523952         3
        15        16        18        32     9      180.000000        0.131747         4
        15        21        20        19     9        0.000000        0.049058         1
        15        21        20        19     9      180.000000       18.957475         2
        15        21        20        19     9        0.000000       -1.747560         3
        15        21        20        19     9      180.000000       -0.491832         4
        15        21        20        34     9        0.000000        0.035520         1
        15        21        20        34     9      180.000000       15.296882         2
        15        21        20        34     9        0.000000       -0.655738         3
        15        21        20        34     9      180.000000       -0.102303         4
        16        15        14        31     9        0.000000        0.240022         1
        16        15        14        31     9      180.000000        1.865954         2
        16        15        14        31     9        0.000000        0.098642         3
        16        15        14        31     9      180.000000       -0.708523         4
        16        15        21        20     9        0.000000       -0.006881         1
        16        15        21        20     9      180.000000       17.262438         2
        16        15        21        20     9        0.000000       -1.094218         3
        16        15        21        20     9      180.000000       -0.352122         4
        16        15        21        35     9        0.000000        0.047018         1
        16        15        21        35     9      180.000000       13.189089         2
        16        15        21        35     9        0.000000       -0.537016         3
        16        15        21        35     9      180.000000        0.061880         4
        16        18        19        20     9        0.000000       -0.032433         1
        16        18        19        20     9      180.000000       18.934430         2
        16        18        19        20     9        0.000000       -1.557290         3
        16        18        19        20     9      180.000000       -0.424627         4
        16        18        19        33     9        0.000000        0.198332         1
        16        18        19        33     9      180.000000       14.705029         2
        16        18        19        33     9        0.000000       -0.642755         3
        16        18        19        33     9      180.000000        0.008763         4
        17        16        15        21     9        0.000000        0.525002         1
        17        16        15        21     9      180.000000       18.040152         2
        17        16        15        21     9        0.000000        0.495922         3
        17        16        15        21     9      180.000000       -0.171011         4
        17        16        18        19     9        0.000000        0.645889         1
        17        16        18        19     9      180.000000       23.195277         2
        17        16        18        19     9        0.000000        0.487176         3
        17        16        18        19     9      180.000000       -0.423171         4
        17        16        18        32     9        0.000000        0.111691         1
        17        16        18        32     9      180.000000       16.534135         2
        17        16        18        32     9        0.000000        0.288378         3
        17        16        18        32     9      180.000000        0.293388         4
        18        16        15        21     9        0.000000        0.006767         1
        18        16        15        21     9      180.000000       13.829140         2
        18        16        15        21     9        0.000000       -0.885018         3
        18        16        15        21     9      180.000000       -0.048070         4
        18        19        20        21     9        0.000000        0.046313         1
        18        19        20        21     9      180.000000       18.690574         2
        18        19        20        21     9        0.000000       -1.686662         3
        18        19        20        21     9      180.000000       -0.397486         4
        18        19        20        34     9        0.000000        0.041684         1
        18        19        20        34     9      180.000000       14.632383         2
        18        19        20        34     9        0.000000       -0.709117         3
        18        19        20        34     9      180.000000        0.113907         4
        19        20        21        35     9        0.000000       -0.022236         1
        19        20        21        35     9      180.000000       14.638765         2
        19        20        21        35     9        0.000000       -0.658560         3
        19        20        21        35     9      180.000000        0.134804         4
        20        19        18        32     9        0.000000        0.073157         1
        20        19        18        32     9      180.000000       13.802238         2
        20        19        18        32     9        0.000000       -0.678149         3
        20        19        18        32     9      180.000000        0.203477         4
        21        15        14        31     9        0.000000        0.122075         1
        21        15        14        31     9      180.000000        2.200668         2
        21        15        14        31     9        0.000000       -0.161874         3
        21        15        14        31     9      180.000000       -0.496120         4
        21        20        19        33     9        0.000000        0.023912         1
        21        20        19        33     9      180.000000       14.309166         2
        21        20        19        33     9        0.000000       -0.792113         3
        21        20        19        33     9      180.000000        0.141890         4
        22        10         9        25     9        0.000000        0.040752         1
        22        10         9        25     9      180.000000       10.972651         2
        22        10         9        25     9        0.000000       -0.517360         3
        22        10         9        25     9      180.000000       -0.118747         4
        22        10        11        30     9        0.000000        0.403978         1
        22        10        11        30     9      180.000000        2.149404         2
        22        10        11        30     9        0.000000        0.432385         3
        22        10        11        30     9      180.000000       -0.165767         4
        22        23        24        25     9        0.000000        0.100605         1
        22        23        24        25     9      180.000000       20.168024         2
        22        23        24        25     9        0.000000       -1.195335         3
        22        23        24        25     9      180.000000       -0.567771         4
        22        23        24        38     9        0.000000        0.082489         1
        22        23        24        38     9      180.000000       14.362334         2
        22        23        24        38     9        0.000000       -0.749613         3
        22        23        24        38     9      180.000000        0.097547         4
        24        23        22        36     9        0.000000        0.167049         1
        24        23        22        36     9      180.000000       14.479790         2
        24        23        22        36     9        0.000000       -0.751910         3
        24        23        22        36     9      180.000000        0.148426         4
        25        24        23        37     9        0.000000        0.174483         1
        25        24        23        37     9      180.000000       15.688095         2
        25        24        23        37     9        0.000000       -0.259874         3
        25        24        23        37     9      180.000000       -0.156477         4
        26         7         6        29     9        0.000000        0.056010         1
        26         7         6        29     9      180.000000       12.890448         2
        26         7         6        29     9        0.000000       -0.522917         3
        26         7         6        29     9      180.000000        0.185411         4
        26        27        28        41     9        0.000000        0.117525         1
        26        27        28        41     9      180.000000       14.934186         2
        26        27        28        41     9        0.000000       -0.834549         3
        26        27        28        41     9      180.000000        0.101174         4
        28         5         6        29     9        0.000000        0.048363         1
        28         5         6        29     9      180.000000       14.235145         2
        28         5         6        29     9        0.000000       -0.596556         3
        28         5         6        29     9      180.000000        0.051989         4
        28        27        26        39     9        0.000000        0.108182         1
        28        27        26        39     9      180.000000       14.195930         2
        28        27        26        39     9        0.000000       -0.624027         3
        28        27        26        39     9      180.000000        0.118249         4
        32        18        19        33     9        0.000000       -0.082041         1
        32        18        19        33     9      180.000000       11.254402         2
        32        18        19        33     9        0.000000       -0.555927         3
        32        18        19        33     9      180.000000        0.225869         4
        33        19        20        34     9        0.000000       -0.087558         1
        33        19        20        34     9      180.000000       11.879164         2
        33        19        20        34     9        0.000000       -0.589191         3
        33        19        20        34     9      180.000000        0.257443         4
        34        20        21        35     9        0.000000       -0.178301         1
        34        20        21        35     9      180.000000       12.151256         2
        34        20        21        35     9        0.000000       -0.685188         3
        34        20        21        35     9      180.000000        0.293249         4
        36        22        23        37     9        0.000000       -0.114528         1
        36        22        23        37     9      180.000000       11.840300         2
        36        22        23        37     9        0.000000       -0.671560         3
        36        22        23        37     9      180.000000        0.313357         4
        37        23        24        38     9        0.000000       -0.153197         1
        37        23        24        38     9      180.000000       12.054830         2
        37        23        24        38     9        0.000000       -0.693173         3
        37        23        24        38     9      180.000000        0.290660         4
        39        26        27        40     9        0.000000       -0.117711         1
        39        26        27        40     9      180.000000       11.992923         2
        39        26        27        40     9        0.000000       -0.643509         3
        39        26        27        40     9      180.000000        0.217301         4
        40        27        28        41     9        0.000000       -0.153393         1
        40        27        28        41     9      180.000000       11.890618         2
        40        27        28        41     9        0.000000       -0.780758         3
        40        27        28        41     9      180.000000        0.311358         4

[ dihedrals ] ; impropers
;       ai        aj        ak        al funct           phase               k        pn
         6         5         7        29     4      180.000000        0.020953         2
         6         7        29         5     4      180.000000        0.020953         2
         6        29         5         7     4      180.000000        0.020953         2
        12        11        13        14     4      180.000000       20.368551         2
        12        13        14        11     4      180.000000       20.368551         2
        12        14        11        13     4      180.000000       20.368551         2
        24        23        25        38     4      180.000000        0.546115         2
        24        25        38        23     4      180.000000        0.546115         2
        24        38        23        25     4      180.000000        0.546115         2
        26         7        27        39     4      180.000000        0.552125         2
        26        27        39         7     4      180.000000        0.552125         2
        26        39         7        27     4      180.000000        0.552125         2
        27        26        28        40     4      180.000000        1.974817         2
        27        28        40        26     4      180.000000        1.974817         2
        27        40        26        28     4      180.000000        1.974817         2

[ pairs ]
;       ai        aj funct
         1         6     1
         1        28     1
         2         7     1
         2        27     1
         2        29     1
         2        41     1
         3         6     1
         3        28     1
         4         6     1
         4        28     1
         5         8     1
         5        26     1
         5        40     1
         6         9     1
         6        27     1
         6        39     1
         6        41     1
         7        10     1
         7        25     1
         7        28     1
         7        40     1
         8        11     1
         8        22     1
         8        24     1
         8        27     1
         8        29     1
         8        39     1
         9        12     1
         9        23     1
         9        26     1
         9        30     1
         9        36     1
         9        38     1
        10        13     1
        10        14     1
        10        24     1
        10        37     1
        11        15     1
        11        23     1
        11        25     1
        11        31     1
        11        36     1
        12        16     1
        12        21     1
        12        22     1
        13        15     1
        13        30     1
        13        31     1
        14        17     1
        14        18     1
        14        20     1
        14        30     1
        14        35     1
        15        19     1
        15        32     1
        15        34     1
        16        20     1
        16        31     1
        16        33     1
        16        35     1
        17        19     1
        17        21     1
        17        32     1
        18        21     1
        18        34     1
        19        35     1
        20        32     1
        21        31     1
        21        33     1
        22        25     1
        22        30     1
        22        38     1
        24        36     1
        25        37     1
        26        29     1
        26        41     1
        28        29     1
        28        39     1
        32        33     1
        33        34     1
        34        35     1
        36        37     1
        37        38     1
        39        40     1
        40        41     1
