; ITP file created by ByteFF-ML, 2025-12-06 04:48:31.639797

[ atomtypes ]
;name           bonded.type        at.num        mass        charge   ptype           sigma         epsilon
 cl0bf                                 17      0.0000       0.00000       A     3.46779e-01     1.10516e+00
 c1bf                                   6      0.0000       0.00000       A     3.31410e-01     4.12576e-01
 c2bf                                   6      0.0000       0.00000       A     3.31463e-01     4.11655e-01
 c3bf                                   6      0.0000       0.00000       A     3.31330e-01     4.11701e-01
 n4bf                                   7      0.0000       0.00000       A     3.27142e-01     4.89323e-01
 c5bf                                   6      0.0000       0.00000       A     3.31259e-01     4.14898e-01
 o6bf                                   8      0.0000       0.00000       A     3.04781e-01     6.14498e-01
 n7bf                                   7      0.0000       0.00000       A     3.26853e-01     4.96156e-01
 c8bf                                   6      0.0000       0.00000       A     3.31219e-01     4.13182e-01
 c9bf                                   6      0.0000       0.00000       A     3.31241e-01     4.10680e-01
 o10bf                                  8      0.0000       0.00000       A     3.15756e-01     3.08030e-01
 c11bf                                  6      0.0000       0.00000       A     3.31584e-01     4.14956e-01
 c12bf                                  6      0.0000       0.00000       A     3.31475e-01     4.13159e-01
 c13bf                                  6      0.0000       0.00000       A     3.31621e-01     4.13385e-01
 c14bf                                  6      0.0000       0.00000       A     3.39851e-01     4.48847e-01
 f15bf                                  9      0.0000       0.00000       A     3.03451e-01     3.47961e-01
 f16bf                                  9      0.0000       0.00000       A     3.03451e-01     3.47961e-01
 f17bf                                  9      0.0000       0.00000       A     3.03451e-01     3.47961e-01
 c18bf                                  6      0.0000       0.00000       A     3.31502e-01     4.12745e-01
 c19bf                                  6      0.0000       0.00000       A     3.31532e-01     4.13738e-01
 c20bf                                  6      0.0000       0.00000       A     3.31510e-01     4.13886e-01
 n21bf                                  7      0.0000       0.00000       A     3.38247e-01     3.91955e-01
 c22bf                                  6      0.0000       0.00000       A     3.31514e-01     4.12560e-01
 c23bf                                  6      0.0000       0.00000       A     3.31481e-01     4.12981e-01
 c24bf                                  6      0.0000       0.00000       A     3.31584e-01     4.13224e-01
 c25bf                                  6      0.0000       0.00000       A     3.31467e-01     4.12638e-01
 c26bf                                  6      0.0000       0.00000       A     3.31481e-01     4.13008e-01
 c27bf                                  6      0.0000       0.00000       A     3.31504e-01     4.12388e-01
 h28bf                                  1      0.0000       0.00000       A     2.62483e-01     6.73733e-02
 h29bf                                  1      0.0000       0.00000       A     1.10460e-01     4.18649e-02
 h30bf                                  1      0.0000       0.00000       A     1.10974e-01     4.12520e-02
 h31bf                                  1      0.0000       0.00000       A     2.62520e-01     6.72073e-02
 h32bf                                  1      0.0000       0.00000       A     2.62655e-01     6.75361e-02
 h33bf                                  1      0.0000       0.00000       A     2.62527e-01     6.72711e-02
 h34bf                                  1      0.0000       0.00000       A     2.62525e-01     6.72408e-02
 h35bf                                  1      0.0000       0.00000       A     2.53538e-01     6.71594e-02
 h36bf                                  1      0.0000       0.00000       A     2.62506e-01     6.74387e-02
 h37bf                                  1      0.0000       0.00000       A     2.62621e-01     6.73062e-02
 h38bf                                  1      0.0000       0.00000       A     2.62571e-01     6.74818e-02
 h39bf                                  1      0.0000       0.00000       A     2.62517e-01     6.72679e-02
 h40bf                                  1      0.0000       0.00000       A     2.62496e-01     6.71211e-02

[ moleculetype ]
;name             nrexcl
 6e                    3

[ atoms ]
;       nr            type      resi   res      atom      cgnr      charge          mass ; qtot
         1           cl0bf         1   UNL       cl0         1    -0.20587       35.4530 ; qtot   -0.206
         2            c1bf         1   UNL        c1         2     0.14779       12.0110 ; qtot   -0.058
         3            c2bf         1   UNL        c2         3    -0.14932       12.0110 ; qtot   -0.207
         4            c3bf         1   UNL        c3         4    -0.00202       12.0110 ; qtot   -0.209
         5            n4bf         1   UNL        n4         5    -0.16478       14.0070 ; qtot   -0.374
         6            c5bf         1   UNL        c5         6     0.66074       12.0110 ; qtot    0.287
         7            o6bf         1   UNL        o6         7    -0.59569       15.9990 ; qtot   -0.309
         8            n7bf         1   UNL        n7         8    -0.15042       14.0070 ; qtot   -0.460
         9            c8bf         1   UNL        c8         9    -0.06788       12.0110 ; qtot   -0.527
        10            c9bf         1   UNL        c9        10     0.51952       12.0110 ; qtot   -0.008
        11           o10bf         1   UNL       o10        11    -0.38334       15.9990 ; qtot   -0.391
        12           c11bf         1   UNL       c11        12     0.11228       12.0110 ; qtot   -0.279
        13           c12bf         1   UNL       c12        13    -0.06086       12.0110 ; qtot   -0.340
        14           c13bf         1   UNL       c13        14    -0.16367       12.0110 ; qtot   -0.504
        15           c14bf         1   UNL       c14        15     0.33660       12.0110 ; qtot   -0.167
        16           f15bf         1   UNL       f15        16    -0.10409       18.9980 ; qtot   -0.271
        17           f16bf         1   UNL       f16        17    -0.10409       18.9980 ; qtot   -0.375
        18           f17bf         1   UNL       f17        18    -0.10409       18.9980 ; qtot   -0.479
        19           c18bf         1   UNL       c18        19    -0.07766       12.0110 ; qtot   -0.557
        20           c19bf         1   UNL       c19        20    -0.09237       12.0110 ; qtot   -0.649
        21           c20bf         1   UNL       c20        21    -0.11065       12.0110 ; qtot   -0.760
        22           n21bf         1   UNL       n21        22    -0.70598       14.0070 ; qtot   -1.466
        23           c22bf         1   UNL       c22        23     0.34178       12.0110 ; qtot   -1.124
        24           c23bf         1   UNL       c23        24    -0.15962       12.0110 ; qtot   -1.284
        25           c24bf         1   UNL       c24        25    -0.08259       12.0110 ; qtot   -1.366
        26           c25bf         1   UNL       c25        26    -0.15256       12.0110 ; qtot   -1.519
        27           c26bf         1   UNL       c26        27    -0.07797       12.0110 ; qtot   -1.597
        28           c27bf         1   UNL       c27        28    -0.12383       12.0110 ; qtot   -1.721
        29           h28bf         1   UNL       h28        29     0.14626        1.0080 ; qtot   -1.574
        30           h29bf         1   UNL       h29        30     0.15810        1.0080 ; qtot   -1.416
        31           h30bf         1   UNL       h30        31     0.17579        1.0080 ; qtot   -1.240
        32           h31bf         1   UNL       h31        32     0.14610        1.0080 ; qtot   -1.094
        33           h32bf         1   UNL       h32        33     0.13256        1.0080 ; qtot   -0.962
        34           h33bf         1   UNL       h33        34     0.12498        1.0080 ; qtot   -0.837
        35           h34bf         1   UNL       h34        35     0.13259        1.0080 ; qtot   -0.704
        36           h35bf         1   UNL       h35        36     0.02910        1.0080 ; qtot   -0.675
        37           h36bf         1   UNL       h36        37     0.12997        1.0080 ; qtot   -0.545
        38           h37bf         1   UNL       h37        38     0.15134        1.0080 ; qtot   -0.394
        39           h38bf         1   UNL       h38        39     0.13668        1.0080 ; qtot   -0.257
        40           h39bf         1   UNL       h39        40     0.12323        1.0080 ; qtot   -0.134
        41           h40bf         1   UNL       h40        41     0.13394        1.0080 ; qtot   -0.000

[ bonds ]
;       ai        aj funct               r               k
         1         2     1        0.175728   147217.847583
         2         3     1        0.139367   312415.607764
         2        28     1        0.139589   298064.595020
         3         4     1        0.140572   283471.158496
         3        29     1        0.108278   328611.702197
         4         5     1        0.140871   250796.605811
         4        26     1        0.140603   282455.700879
         5         6     1        0.138525   247827.074121
         5        30     1        0.101105   419216.012793
         6         7     1        0.122725   593985.707227
         6         8     1        0.138886   239709.822998
         8         9     1        0.140423   262254.059766
         8        31     1        0.101419   408858.186768
         9        10     1        0.141455   241784.559912
         9        25     1        0.139669   302796.953369
        10        11     1        0.137972   227076.921436
        10        22     1        0.131650   340496.647363
        11        12     1        0.139076   226098.952295
        12        13     1        0.139458   302119.734766
        12        21     1        0.139507   300349.451270
        13        14     1        0.139683   306929.649316
        13        32     1        0.108435   325508.713574
        14        15     1        0.150642   194411.357812
        14        19     1        0.139893   298842.480908
        15        16     1        0.135848   221750.289014
        15        17     1        0.135848   221750.289014
        15        18     1        0.135848   221750.289014
        19        20     1        0.139776   311431.586328
        19        33     1        0.108475   324244.396826
        20        21     1        0.139703   315002.338184
        20        34     1        0.108575   321535.088281
        21        35     1        0.108471   324023.679590
        22        23     1        0.134429   311714.895020
        23        24     1        0.139139   305686.170850
        23        36     1        0.108728   317581.203174
        24        25     1        0.140003   313082.713672
        24        37     1        0.108503   324361.765381
        25        38     1        0.108193   330892.421436
        26        27     1        0.139510   321736.780371
        26        39     1        0.108323   327333.493262
        27        28     1        0.139792   306230.060205
        27        40     1        0.108578   321463.303467
        28        41     1        0.108423   326411.297168

[ angles ]
;       ai        aj        ak funct           theta             cth
         1         2         3     1      118.659874      375.414469
         1         2        28     1      119.264771      364.921111
         2         3         4     1      119.102493      730.895054
         2         3        29     1      120.461647      368.159504
         2        28        27     1      118.157494      592.506840
         2        28        41     1      120.512367      415.084006
         3         2        28     1      122.096603      628.909671
         3         4         5     1      119.514244      577.000644
         3         4        26     1      119.604736      521.703736
         4         3        29     1      120.573044      433.717669
         4         5         6     1      128.370804      464.238409
         4         5        30     1      114.861710      455.797564
         4        26        27     1      119.690353      749.238168
         4        26        39     1      119.763466      451.248480
         5         4        26     1      120.901489      588.619135
         5         6         7     1      124.518394      550.028030
         5         6         8     1      112.608788      545.924089
         6         5        30     1      116.247543      459.672374
         6         8         9     1      126.276352      452.689379
         6         8        31     1      117.628128      436.697498
         7         6         8     1      123.886490      550.707764
         8         9        10     1      117.626175      431.158851
         8         9        25     1      125.502136      569.232191
         9         8        31     1      114.048378      434.130349
         9        10        11     1      116.891190      365.084836
         9        10        22     1      124.298561      669.115487
         9        25        24     1      118.717087      830.537407
         9        25        38     1      119.480087      442.212844
        10         9        25     1      116.875977      643.692976
        10        11        12     1      118.996475      468.152993
        10        22        23     1      118.202881      715.701240
        11        10        22     1      119.251526      575.307278
        11        12        13     1      119.127602      475.579822
        11        12        21     1      119.560463      505.160382
        12        13        14     1      118.906960      675.205641
        12        13        32     1      119.610718      415.840096
        12        21        20     1      119.077614      700.722321
        12        21        35     1      119.664551      413.801469
        13        12        21     1      121.136398      642.560405
        13        14        15     1      119.258873      488.824357
        13        14        19     1      120.920876      664.961046
        14        13        32     1      121.073891      390.436674
        14        15        16     1      111.963486      590.221141
        14        15        17     1      111.963486      590.221141
        14        15        18     1      111.963486      590.221141
        14        19        20     1      119.033890      671.258051
        14        19        33     1      120.217079      418.336253
        15        14        19     1      119.563637      526.853231
        16        15        17     1      106.673416      701.102377
        16        15        18     1      106.673416      701.102377
        17        15        18     1      106.673416      701.102377
        19        20        21     1      120.545677      713.667337
        19        20        34     1      119.880020      433.195499
        20        19        33     1      120.676857      426.254353
        20        21        35     1      121.394608      418.058218
        21        20        34     1      119.583778      428.611077
        22        23        24     1      122.499290      661.638094
        22        23        36     1      116.190018      392.705071
        23        24        25     1      119.055466      724.682960
        23        24        37     1      120.600418      442.820723
        24        23        36     1      121.265182      408.189083
        24        25        38     1      121.786972      385.096960
        25        24        37     1      120.423485      439.039411
        26        27        28     1      121.332069      686.240098
        26        27        40     1      119.283508      432.921933
        27        26        39     1      120.619202      395.545755
        27        28        41     1      121.396561      425.092861
        28        27        40     1      119.348961      440.198732

[ dihedrals ] ; propers for gromacs 4.5 or higher, use funct 9
;       ai        aj        ak        al funct           phase               k        pn
         1         2         3         4     9        0.000000        0.363109         1
         1         2         3         4     9      180.000000       18.587462         2
         1         2         3         4     9        0.000000        0.352013         3
         1         2         3         4     9      180.000000       -0.562446         4
         1         2         3        29     9        0.000000        0.212246         1
         1         2         3        29     9      180.000000       13.797136         2
         1         2         3        29     9        0.000000       -0.085306         3
         1         2         3        29     9      180.000000        0.225260         4
         1         2        28        27     9        0.000000        0.473395         1
         1         2        28        27     9      180.000000       19.484739         2
         1         2        28        27     9        0.000000        0.400808         3
         1         2        28        27     9      180.000000       -0.613120         4
         1         2        28        41     9        0.000000        0.191165         1
         1         2        28        41     9      180.000000       13.331443         2
         1         2        28        41     9        0.000000       -0.085853         3
         1         2        28        41     9      180.000000        0.235093         4
         2         3         4         5     9        0.000000        0.361247         1
         2         3         4         5     9      180.000000       16.929128         2
         2         3         4         5     9        0.000000        0.247113         3
         2         3         4         5     9      180.000000       -0.454832         4
         2         3         4        26     9        0.000000       -0.020386         1
         2         3         4        26     9      180.000000       16.196155         2
         2         3         4        26     9        0.000000       -1.087727         3
         2         3         4        26     9      180.000000       -0.239837         4
         2        28        27        26     9        0.000000       -0.018890         1
         2        28        27        26     9      180.000000       18.447635         2
         2        28        27        26     9        0.000000       -1.519414         3
         2        28        27        26     9      180.000000       -0.419544         4
         2        28        27        40     9        0.000000        0.045163         1
         2        28        27        40     9      180.000000       14.340294         2
         2        28        27        40     9        0.000000       -0.542661         3
         2        28        27        40     9      180.000000        0.109851         4
         3         2        28        27     9        0.000000       -0.075470         1
         3         2        28        27     9      180.000000       17.728845         2
         3         2        28        27     9        0.000000       -1.283849         3
         3         2        28        27     9      180.000000       -0.385102         4
         3         2        28        41     9        0.000000        0.011092         1
         3         2        28        41     9      180.000000       13.367148         2
         3         2        28        41     9        0.000000       -0.577798         3
         3         2        28        41     9      180.000000        0.117569         4
         3         4         5         6     9        0.000000       -0.201459         1
         3         4         5         6     9      180.000000        2.164947         2
         3         4         5         6     9        0.000000       -0.144520         3
         3         4         5         6     9      180.000000        0.281078         4
         3         4         5        30     9        0.000000        0.600689         1
         3         4         5        30     9      180.000000        2.747068         2
         3         4         5        30     9        0.000000        0.158927         3
         3         4         5        30     9      180.000000       -0.203711         4
         3         4        26        27     9        0.000000        0.107355         1
         3         4        26        27     9      180.000000       16.416589         2
         3         4        26        27     9        0.000000       -0.993902         3
         3         4        26        27     9      180.000000       -0.216855         4
         3         4        26        39     9        0.000000        0.198208         1
         3         4        26        39     9      180.000000       13.065861         2
         3         4        26        39     9        0.000000       -0.431418         3
         3         4        26        39     9      180.000000        0.099665         4
         4         3         2        28     9        0.000000        0.059481         1
         4         3         2        28     9      180.000000       17.093699         2
         4         3         2        28     9        0.000000       -1.348982         3
         4         3         2        28     9      180.000000       -0.344913         4
         4         5         6         7     9        0.000000       -2.964985         1
         4         5         6         7     9      180.000000        4.168138         2
         4         5         6         7     9        0.000000       -0.657550         3
         4         5         6         7     9      180.000000       -0.173482         4
         4         5         6         8     9        0.000000        5.813069         1
         4         5         6         8     9      180.000000        5.387374         2
         4         5         6         8     9        0.000000       -0.100034         3
         4         5         6         8     9      180.000000       -0.048644         4
         4        26        27        28     9        0.000000        0.068288         1
         4        26        27        28     9      180.000000       18.423275         2
         4        26        27        28     9        0.000000       -1.604185         3
         4        26        27        28     9      180.000000       -0.452267         4
         4        26        27        40     9        0.000000        0.039615         1
         4        26        27        40     9      180.000000       14.792113         2
         4        26        27        40     9        0.000000       -0.596735         3
         4        26        27        40     9      180.000000       -0.022070         4
         5         4         3        29     9        0.000000       -0.168878         1
         5         4         3        29     9      180.000000       13.395018         2
         5         4         3        29     9        0.000000       -0.277755         3
         5         4         3        29     9      180.000000        0.266186         4
         5         4        26        27     9        0.000000        0.426456         1
         5         4        26        27     9      180.000000       17.089063         2
         5         4        26        27     9        0.000000        0.240678         3
         5         4        26        27     9      180.000000       -0.287069         4
         5         4        26        39     9        0.000000       -0.109248         1
         5         4        26        39     9      180.000000       13.774970         2
         5         4        26        39     9        0.000000       -0.184225         3
         5         4        26        39     9      180.000000        0.240021         4
         5         6         8         9     9        0.000000        5.519249         1
         5         6         8         9     9      180.000000        6.394441         2
         5         6         8         9     9        0.000000       -0.048161         3
         5         6         8         9     9      180.000000       -0.145072         4
         5         6         8        31     9        0.000000        4.462484         1
         5         6         8        31     9      180.000000        6.894050         2
         5         6         8        31     9        0.000000       -0.410504         3
         5         6         8        31     9      180.000000        0.202802         4
         6         5         4        26     9        0.000000        0.276547         1
         6         5         4        26     9      180.000000        2.135396         2
         6         5         4        26     9        0.000000       -0.139145         3
         6         5         4        26     9      180.000000        0.277424         4
         6         8         9        10     9        0.000000       -1.891644         1
         6         8         9        10     9      180.000000        1.922334         2
         6         8         9        10     9        0.000000        0.305756         3
         6         8         9        10     9      180.000000       -0.046941         4
         6         8         9        25     9        0.000000       -0.468535         1
         6         8         9        25     9      180.000000        1.875921         2
         6         8         9        25     9        0.000000       -0.412224         3
         6         8         9        25     9      180.000000        0.469219         4
         7         6         5        30     9        0.000000       -1.969014         1
         7         6         5        30     9      180.000000        5.846682         2
         7         6         5        30     9        0.000000        0.117157         3
         7         6         5        30     9      180.000000        0.127526         4
         7         6         8         9     9        0.000000       -2.531743         1
         7         6         8         9     9      180.000000        4.872688         2
         7         6         8         9     9        0.000000       -0.696803         3
         7         6         8         9     9      180.000000       -0.176057         4
         7         6         8        31     9        0.000000       -2.204784         1
         7         6         8        31     9      180.000000        5.153815         2
         7         6         8        31     9        0.000000       -0.121163         3
         7         6         8        31     9      180.000000       -0.071652         4
         8         6         5        30     9        0.000000        4.748796         1
         8         6         5        30     9      180.000000        6.857191         2
         8         6         5        30     9        0.000000       -0.552689         3
         8         6         5        30     9      180.000000        0.301754         4
         8         9        10        11     9        0.000000        0.079118         1
         8         9        10        11     9      180.000000       15.943068         2
         8         9        10        11     9        0.000000        0.335160         3
         8         9        10        11     9      180.000000       -0.375931         4
         8         9        10        22     9        0.000000        0.220828         1
         8         9        10        22     9      180.000000       12.478480         2
         8         9        10        22     9        0.000000       -0.109575         3
         8         9        10        22     9      180.000000       -0.329487         4
         8         9        25        24     9        0.000000        0.334774         1
         8         9        25        24     9      180.000000       18.629022         2
         8         9        25        24     9        0.000000        0.316335         3
         8         9        25        24     9      180.000000       -0.464757         4
         8         9        25        38     9        0.000000        0.246514         1
         8         9        25        38     9      180.000000       14.352632         2
         8         9        25        38     9        0.000000       -0.128549         3
         8         9        25        38     9      180.000000        0.162568         4
         9        10        11        12     9        0.000000        2.791598         1
         9        10        11        12     9      180.000000        2.854338         2
         9        10        11        12     9        0.000000        0.008276         3
         9        10        11        12     9      180.000000       -0.081408         4
         9        10        22        23     9        0.000000        0.158669         1
         9        10        22        23     9      180.000000       23.115477         2
         9        10        22        23     9        0.000000       -0.233633         3
         9        10        22        23     9      180.000000       -0.071711         4
         9        25        24        23     9        0.000000        0.066168         1
         9        25        24        23     9      180.000000       18.396385         2
         9        25        24        23     9        0.000000       -2.102023         3
         9        25        24        23     9      180.000000       -0.535985         4
         9        25        24        37     9        0.000000        0.126273         1
         9        25        24        37     9      180.000000       15.018723         2
         9        25        24        37     9        0.000000       -0.647982         3
         9        25        24        37     9      180.000000       -0.080098         4
        10         9         8        31     9        0.000000        1.738829         1
        10         9         8        31     9      180.000000        1.587693         2
        10         9         8        31     9        0.000000        0.489558         3
        10         9         8        31     9      180.000000       -0.381082         4
        10         9        25        24     9        0.000000        0.030817         1
        10         9        25        24     9      180.000000       17.824404         2
        10         9        25        24     9        0.000000       -1.212316         3
        10         9        25        24     9      180.000000       -0.515062         4
        10         9        25        38     9        0.000000        0.112899         1
        10         9        25        38     9      180.000000       13.626117         2
        10         9        25        38     9        0.000000       -0.408094         3
        10         9        25        38     9      180.000000        0.036469         4
        10        11        12        13     9        0.000000       -0.096951         1
        10        11        12        13     9      180.000000        3.845559         2
        10        11        12        13     9        0.000000       -0.637444         3
        10        11        12        13     9      180.000000        0.505060         4
        10        11        12        21     9        0.000000        0.084529         1
        10        11        12        21     9      180.000000        3.730264         2
        10        11        12        21     9        0.000000       -0.527888         3
        10        11        12        21     9      180.000000        0.458010         4
        10        22        23        24     9        0.000000        0.056121         1
        10        22        23        24     9      180.000000       22.227408         2
        10        22        23        24     9        0.000000       -1.099500         3
        10        22        23        24     9      180.000000       -0.344180         4
        10        22        23        36     9        0.000000        1.036486         1
        10        22        23        36     9      180.000000       19.807955         2
        10        22        23        36     9        0.000000        0.288466         3
        10        22        23        36     9      180.000000       -0.599441         4
        11        10         9        25     9        0.000000        0.367062         1
        11        10         9        25     9      180.000000       12.897585         2
        11        10         9        25     9        0.000000        0.264182         3
        11        10         9        25     9      180.000000       -0.062919         4
        11        10        22        23     9        0.000000        0.951283         1
        11        10        22        23     9      180.000000       29.893619         2
        11        10        22        23     9        0.000000        1.349691         3
        11        10        22        23     9      180.000000       -0.721816         4
        11        12        13        14     9        0.000000        0.461177         1
        11        12        13        14     9      180.000000       18.685890         2
        11        12        13        14     9        0.000000        0.578921         3
        11        12        13        14     9      180.000000       -0.438095         4
        11        12        13        32     9        0.000000        0.241204         1
        11        12        13        32     9      180.000000       13.972061         2
        11        12        13        32     9        0.000000        0.209932         3
        11        12        13        32     9      180.000000        0.287732         4
        11        12        21        20     9        0.000000        0.691591         1
        11        12        21        20     9      180.000000       18.726701         2
        11        12        21        20     9        0.000000        0.679695         3
        11        12        21        20     9      180.000000       -0.385291         4
        11        12        21        35     9        0.000000        0.168961         1
        11        12        21        35     9      180.000000       14.166478         2
        11        12        21        35     9        0.000000        0.177157         3
        11        12        21        35     9      180.000000        0.249999         4
        12        11        10        22     9        0.000000       -1.163768         1
        12        11        10        22     9      180.000000        4.059283         2
        12        11        10        22     9        0.000000       -0.809870         3
        12        11        10        22     9      180.000000       -0.060209         4
        12        13        14        15     9        0.000000        0.215367         1
        12        13        14        15     9      180.000000       15.224711         2
        12        13        14        15     9        0.000000        0.160888         3
        12        13        14        15     9      180.000000       -0.294407         4
        12        13        14        19     9        0.000000       -0.080830         1
        12        13        14        19     9      180.000000       18.431431         2
        12        13        14        19     9        0.000000       -1.585222         3
        12        13        14        19     9      180.000000       -0.412846         4
        12        21        20        19     9        0.000000       -0.065058         1
        12        21        20        19     9      180.000000       18.729965         2
        12        21        20        19     9        0.000000       -1.425256         3
        12        21        20        19     9      180.000000       -0.471228         4
        12        21        20        34     9        0.000000        0.047456         1
        12        21        20        34     9      180.000000       14.866803         2
        12        21        20        34     9        0.000000       -0.511681         3
        12        21        20        34     9      180.000000        0.022193         4
        13        12        21        20     9        0.000000        0.009737         1
        13        12        21        20     9      180.000000       16.835914         2
        13        12        21        20     9        0.000000       -0.933731         3
        13        12        21        20     9      180.000000       -0.219708         4
        13        12        21        35     9        0.000000        0.042221         1
        13        12        21        35     9      180.000000       13.111510         2
        13        12        21        35     9        0.000000       -0.535863         3
        13        12        21        35     9      180.000000        0.136008         4
        13        14        15        16     9        0.000000       -0.056845         1
        13        14        15        16     9      180.000000        0.147565         2
        13        14        15        16     9        0.000000        0.094344         3
        13        14        15        16     9      180.000000        0.023205         4
        13        14        15        17     9        0.000000       -0.056845         1
        13        14        15        17     9      180.000000        0.147565         2
        13        14        15        17     9        0.000000        0.094344         3
        13        14        15        17     9      180.000000        0.023205         4
        13        14        15        18     9        0.000000       -0.056845         1
        13        14        15        18     9      180.000000        0.147565         2
        13        14        15        18     9        0.000000        0.094344         3
        13        14        15        18     9      180.000000        0.023205         4
        13        14        19        20     9        0.000000       -0.097627         1
        13        14        19        20     9      180.000000       18.802132         2
        13        14        19        20     9        0.000000       -1.614990         3
        13        14        19        20     9      180.000000       -0.392323         4
        13        14        19        33     9        0.000000        0.086681         1
        13        14        19        33     9      180.000000       14.632809         2
        13        14        19        33     9        0.000000       -0.721878         3
        13        14        19        33     9      180.000000        0.027501         4
        14        13        12        21     9        0.000000        0.131992         1
        14        13        12        21     9      180.000000       17.207648         2
        14        13        12        21     9        0.000000       -0.953156         3
        14        13        12        21     9      180.000000       -0.284457         4
        14        19        20        21     9        0.000000        0.076387         1
        14        19        20        21     9      180.000000       18.872772         2
        14        19        20        21     9        0.000000       -1.670060         3
        14        19        20        21     9      180.000000       -0.377128         4
        14        19        20        34     9        0.000000        0.075182         1
        14        19        20        34     9      180.000000       14.906743         2
        14        19        20        34     9        0.000000       -0.691168         3
        14        19        20        34     9      180.000000        0.085826         4
        15        14        13        32     9        0.000000        0.062054         1
        15        14        13        32     9      180.000000       12.135618         2
        15        14        13        32     9        0.000000       -0.273581         3
        15        14        13        32     9      180.000000        0.098556         4
        15        14        19        20     9        0.000000        0.052564         1
        15        14        19        20     9      180.000000       15.093531         2
        15        14        19        20     9        0.000000       -0.022061         3
        15        14        19        20     9      180.000000       -0.279823         4
        15        14        19        33     9        0.000000        0.021646         1
        15        14        19        33     9      180.000000       12.001620         2
        15        14        19        33     9        0.000000       -0.324659         3
        15        14        19        33     9      180.000000        0.133722         4
        16        15        14        19     9        0.000000       -0.024666         1
        16        15        14        19     9      180.000000        0.065952         2
        16        15        14        19     9        0.000000        0.107954         3
        16        15        14        19     9      180.000000        0.013499         4
        17        15        14        19     9        0.000000       -0.024666         1
        17        15        14        19     9      180.000000        0.065952         2
        17        15        14        19     9        0.000000        0.107954         3
        17        15        14        19     9      180.000000        0.013499         4
        18        15        14        19     9        0.000000       -0.024666         1
        18        15        14        19     9      180.000000        0.065952         2
        18        15        14        19     9        0.000000        0.107954         3
        18        15        14        19     9      180.000000        0.013499         4
        19        14        13        32     9        0.000000        0.048364         1
        19        14        13        32     9      180.000000       14.235141         2
        19        14        13        32     9        0.000000       -0.596556         3
        19        14        13        32     9      180.000000        0.051989         4
        19        20        21        35     9        0.000000        0.108181         1
        19        20        21        35     9      180.000000       14.195929         2
        19        20        21        35     9        0.000000       -0.624026         3
        19        20        21        35     9      180.000000        0.118249         4
        21        12        13        32     9        0.000000        0.056010         1
        21        12        13        32     9      180.000000       12.890448         2
        21        12        13        32     9        0.000000       -0.522917         3
        21        12        13        32     9      180.000000        0.185410         4
        21        20        19        33     9        0.000000        0.117525         1
        21        20        19        33     9      180.000000       14.934184         2
        21        20        19        33     9        0.000000       -0.834549         3
        21        20        19        33     9      180.000000        0.101173         4
        22        10         9        25     9        0.000000        0.040752         1
        22        10         9        25     9      180.000000       10.972651         2
        22        10         9        25     9        0.000000       -0.517360         3
        22        10         9        25     9      180.000000       -0.118747         4
        22        23        24        25     9        0.000000        0.100605         1
        22        23        24        25     9      180.000000       20.168024         2
        22        23        24        25     9        0.000000       -1.195335         3
        22        23        24        25     9      180.000000       -0.567771         4
        22        23        24        37     9        0.000000        0.174483         1
        22        23        24        37     9      180.000000       15.688095         2
        22        23        24        37     9        0.000000       -0.259874         3
        22        23        24        37     9      180.000000       -0.156477         4
        23        24        25        38     9        0.000000        0.167049         1
        23        24        25        38     9      180.000000       14.479790         2
        23        24        25        38     9        0.000000       -0.751910         3
        23        24        25        38     9      180.000000        0.148426         4
        25         9         8        31     9        0.000000        0.403978         1
        25         9         8        31     9      180.000000        2.149404         2
        25         9         8        31     9        0.000000        0.432385         3
        25         9         8        31     9      180.000000       -0.165767         4
        25        24        23        36     9        0.000000        0.082489         1
        25        24        23        36     9      180.000000       14.362334         2
        25        24        23        36     9        0.000000       -0.749613         3
        25        24        23        36     9      180.000000        0.097547         4
        26         4         3        29     9        0.000000        0.199591         1
        26         4         3        29     9      180.000000       12.646320         2
        26         4         3        29     9        0.000000       -0.532839         3
        26         4         3        29     9      180.000000        0.184871         4
        26         4         5        30     9        0.000000       -0.205872         1
        26         4         5        30     9      180.000000        2.715826         2
        26         4         5        30     9        0.000000       -0.130174         3
        26         4         5        30     9      180.000000       -0.194424         4
        26        27        28        41     9        0.000000        0.094346         1
        26        27        28        41     9      180.000000       14.135662         2
        26        27        28        41     9        0.000000       -0.760227         3
        26        27        28        41     9      180.000000        0.163725         4
        28         2         3        29     9        0.000000        0.048847         1
        28         2         3        29     9      180.000000       13.551966         2
        28         2         3        29     9        0.000000       -0.570423         3
        28         2         3        29     9      180.000000        0.144410         4
        28        27        26        39     9        0.000000        0.067183         1
        28        27        26        39     9      180.000000       14.988996         2
        28        27        26        39     9        0.000000       -0.611776         3
        28        27        26        39     9      180.000000        0.104280         4
        33        19        20        34     9        0.000000       -0.153392         1
        33        19        20        34     9      180.000000       11.890616         2
        33        19        20        34     9        0.000000       -0.780758         3
        33        19        20        34     9      180.000000        0.311358         4
        34        20        21        35     9        0.000000       -0.117712         1
        34        20        21        35     9      180.000000       11.992923         2
        34        20        21        35     9        0.000000       -0.643510         3
        34        20        21        35     9      180.000000        0.217300         4
        36        23        24        37     9        0.000000       -0.153197         1
        36        23        24        37     9      180.000000       12.054830         2
        36        23        24        37     9        0.000000       -0.693173         3
        36        23        24        37     9      180.000000        0.290660         4
        37        24        25        38     9        0.000000       -0.114528         1
        37        24        25        38     9      180.000000       11.840300         2
        37        24        25        38     9        0.000000       -0.671560         3
        37        24        25        38     9      180.000000        0.313357         4
        39        26        27        40     9        0.000000       -0.115274         1
        39        26        27        40     9      180.000000       12.127181         2
        39        26        27        40     9        0.000000       -0.615402         3
        39        26        27        40     9      180.000000        0.252947         4
        40        27        28        41     9        0.000000       -0.187310         1
        40        27        28        41     9      180.000000       11.458673         2
        40        27        28        41     9        0.000000       -0.596494         3
        40        27        28        41     9      180.000000        0.300635         4

[ dihedrals ] ; impropers
;       ai        aj        ak        al funct           phase               k        pn
         6         5         7         8     4      180.000000       20.316284         2
         6         7         8         5     4      180.000000       20.316284         2
         6         8         5         7     4      180.000000       20.316284         2
        13        12        14        32     4      180.000000        0.020954         2
        13        14        32        12     4      180.000000        0.020954         2
        13        32        12        14     4      180.000000        0.020954         2
        20        19        21        34     4      180.000000        1.974818         2
        20        21        34        19     4      180.000000        1.974818         2
        20        34        19        21     4      180.000000        1.974818         2
        21        12        20        35     4      180.000000        0.552125         2
        21        20        35        12     4      180.000000        0.552125         2
        21        35        12        20     4      180.000000        0.552125         2
        23        22        24        36     4      180.000000        0.546115         2
        23        24        36        22     4      180.000000        0.546115         2
        23        36        22        24     4      180.000000        0.546115         2

[ pairs ]
;       ai        aj funct
         1         4     1
         1        27     1
         1        29     1
         1        41     1
         2         5     1
         2        26     1
         2        40     1
         3         6     1
         3        27     1
         3        30     1
         3        39     1
         3        41     1
         4         7     1
         4         8     1
         4        28     1
         4        40     1
         5         9     1
         5        27     1
         5        29     1
         5        31     1
         5        39     1
         6        10     1
         6        25     1
         6        26     1
         7         9     1
         7        30     1
         7        31     1
         8        11     1
         8        22     1
         8        24     1
         8        30     1
         8        38     1
         9        12     1
         9        23     1
         9        37     1
        10        13     1
        10        21     1
        10        24     1
        10        31     1
        10        36     1
        10        38     1
        11        14     1
        11        20     1
        11        23     1
        11        25     1
        11        32     1
        11        35     1
        12        15     1
        12        19     1
        12        22     1
        12        34     1
        13        16     1
        13        17     1
        13        18     1
        13        20     1
        13        33     1
        13        35     1
        14        21     1
        14        34     1
        15        20     1
        15        32     1
        15        33     1
        16        19     1
        17        19     1
        18        19     1
        19        32     1
        19        35     1
        21        32     1
        21        33     1
        22        25     1
        22        37     1
        23        38     1
        25        31     1
        25        36     1
        26        29     1
        26        30     1
        26        41     1
        28        29     1
        28        39     1
        33        34     1
        34        35     1
        36        37     1
        37        38     1
        39        40     1
        40        41     1
