; ITP file created by ByteFF-ML, 2025-12-06 04:49:41.747010

[ atomtypes ]
;name           bonded.type        at.num        mass        charge   ptype           sigma         epsilon
 f0bf                                   9      0.0000       0.00000       A     3.03474e-01     3.50336e-01
 c1bf                                   6      0.0000       0.00000       A     3.39967e-01     4.52452e-01
 f2bf                                   9      0.0000       0.00000       A     3.03474e-01     3.50336e-01
 f3bf                                   9      0.0000       0.00000       A     3.03474e-01     3.50336e-01
 o4bf                                   8      0.0000       0.00000       A     3.15884e-01     3.02398e-01
 c5bf                                   6      0.0000       0.00000       A     3.31648e-01     4.14415e-01
 c6bf                                   6      0.0000       0.00000       A     3.31536e-01     4.12700e-01
 c7bf                                   6      0.0000       0.00000       A     3.31448e-01     4.11586e-01
 c8bf                                   6      0.0000       0.00000       A     3.31332e-01     4.11216e-01
 n9bf                                   7      0.0000       0.00000       A     3.27155e-01     4.89269e-01
 c10bf                                  6      0.0000       0.00000       A     3.31259e-01     4.14898e-01
 o11bf                                  8      0.0000       0.00000       A     3.04781e-01     6.14498e-01
 n12bf                                  7      0.0000       0.00000       A     3.26853e-01     4.96156e-01
 c13bf                                  6      0.0000       0.00000       A     3.31219e-01     4.13182e-01
 c14bf                                  6      0.0000       0.00000       A     3.31241e-01     4.10680e-01
 o15bf                                  8      0.0000       0.00000       A     3.15756e-01     3.08030e-01
 c16bf                                  6      0.0000       0.00000       A     3.31584e-01     4.14956e-01
 c17bf                                  6      0.0000       0.00000       A     3.31475e-01     4.13159e-01
 c18bf                                  6      0.0000       0.00000       A     3.31621e-01     4.13385e-01
 c19bf                                  6      0.0000       0.00000       A     3.39851e-01     4.48847e-01
 f20bf                                  9      0.0000       0.00000       A     3.03451e-01     3.47961e-01
 f21bf                                  9      0.0000       0.00000       A     3.03451e-01     3.47961e-01
 f22bf                                  9      0.0000       0.00000       A     3.03451e-01     3.47961e-01
 c23bf                                  6      0.0000       0.00000       A     3.31502e-01     4.12745e-01
 c24bf                                  6      0.0000       0.00000       A     3.31532e-01     4.13738e-01
 c25bf                                  6      0.0000       0.00000       A     3.31510e-01     4.13886e-01
 n26bf                                  7      0.0000       0.00000       A     3.38247e-01     3.91955e-01
 c27bf                                  6      0.0000       0.00000       A     3.31514e-01     4.12560e-01
 c28bf                                  6      0.0000       0.00000       A     3.31481e-01     4.12981e-01
 c29bf                                  6      0.0000       0.00000       A     3.31584e-01     4.13224e-01
 c30bf                                  6      0.0000       0.00000       A     3.31448e-01     4.11586e-01
 c31bf                                  6      0.0000       0.00000       A     3.31536e-01     4.12700e-01
 h32bf                                  1      0.0000       0.00000       A     2.62481e-01     6.70078e-02
 h33bf                                  1      0.0000       0.00000       A     2.62511e-01     6.75999e-02
 h34bf                                  1      0.0000       0.00000       A     1.10460e-01     4.18649e-02
 h35bf                                  1      0.0000       0.00000       A     1.10974e-01     4.12520e-02
 h36bf                                  1      0.0000       0.00000       A     2.62520e-01     6.72073e-02
 h37bf                                  1      0.0000       0.00000       A     2.62655e-01     6.75361e-02
 h38bf                                  1      0.0000       0.00000       A     2.62527e-01     6.72711e-02
 h39bf                                  1      0.0000       0.00000       A     2.62525e-01     6.72408e-02
 h40bf                                  1      0.0000       0.00000       A     2.53538e-01     6.71594e-02
 h41bf                                  1      0.0000       0.00000       A     2.62506e-01     6.74387e-02
 h42bf                                  1      0.0000       0.00000       A     2.62621e-01     6.73062e-02
 h43bf                                  1      0.0000       0.00000       A     2.62511e-01     6.75999e-02
 h44bf                                  1      0.0000       0.00000       A     2.62481e-01     6.70078e-02

[ moleculetype ]
;name             nrexcl
 6j                    3

[ atoms ]
;       nr            type      resi   res      atom      cgnr      charge          mass ; qtot
         1            f0bf         1   UNL        f0         1    -0.09106       18.9980 ; qtot   -0.091
         2            c1bf         1   UNL        c1         2     0.49711       12.0110 ; qtot    0.406
         3            f2bf         1   UNL        f2         3    -0.09106       18.9980 ; qtot    0.315
         4            f3bf         1   UNL        f3         4    -0.09106       18.9980 ; qtot    0.224
         5            o4bf         1   UNL        o4         5    -0.38246       15.9990 ; qtot   -0.159
         6            c5bf         1   UNL        c5         6     0.07653       12.0110 ; qtot   -0.082
         7            c6bf         1   UNL        c6         7    -0.08838       12.0110 ; qtot   -0.170
         8            c7bf         1   UNL        c7         8    -0.12373       12.0110 ; qtot   -0.294
         9            c8bf         1   UNL        c8         9    -0.04617       12.0110 ; qtot   -0.340
        10            n9bf         1   UNL        n9        10    -0.16106       14.0070 ; qtot   -0.501
        11           c10bf         1   UNL       c10        11     0.65911       12.0110 ; qtot    0.158
        12           o11bf         1   UNL       o11        12    -0.59569       15.9990 ; qtot   -0.438
        13           n12bf         1   UNL       n12        13    -0.15042       14.0070 ; qtot   -0.588
        14           c13bf         1   UNL       c13        14    -0.06788       12.0110 ; qtot   -0.656
        15           c14bf         1   UNL       c14        15     0.51952       12.0110 ; qtot   -0.137
        16           o15bf         1   UNL       o15        16    -0.38334       15.9990 ; qtot   -0.520
        17           c16bf         1   UNL       c16        17     0.11228       12.0110 ; qtot   -0.408
        18           c17bf         1   UNL       c17        18    -0.06086       12.0110 ; qtot   -0.469
        19           c18bf         1   UNL       c18        19    -0.16367       12.0110 ; qtot   -0.632
        20           c19bf         1   UNL       c19        20     0.33660       12.0110 ; qtot   -0.296
        21           f20bf         1   UNL       f20        21    -0.10409       18.9980 ; qtot   -0.400
        22           f21bf         1   UNL       f21        22    -0.10409       18.9980 ; qtot   -0.504
        23           f22bf         1   UNL       f22        23    -0.10409       18.9980 ; qtot   -0.608
        24           c23bf         1   UNL       c23        24    -0.07766       12.0110 ; qtot   -0.686
        25           c24bf         1   UNL       c24        25    -0.09237       12.0110 ; qtot   -0.778
        26           c25bf         1   UNL       c25        26    -0.11065       12.0110 ; qtot   -0.889
        27           n26bf         1   UNL       n26        27    -0.70598       14.0070 ; qtot   -1.595
        28           c27bf         1   UNL       c27        28     0.34178       12.0110 ; qtot   -1.253
        29           c28bf         1   UNL       c28        29    -0.15962       12.0110 ; qtot   -1.412
        30           c29bf         1   UNL       c29        30    -0.08259       12.0110 ; qtot   -1.495
        31           c30bf         1   UNL       c30        31    -0.12373       12.0110 ; qtot   -1.619
        32           c31bf         1   UNL       c31        32    -0.08838       12.0110 ; qtot   -1.707
        33           h32bf         1   UNL       h32        33     0.13324        1.0080 ; qtot   -1.574
        34           h33bf         1   UNL       h33        34     0.13135        1.0080 ; qtot   -1.443
        35           h34bf         1   UNL       h34        35     0.15557        1.0080 ; qtot   -1.287
        36           h35bf         1   UNL       h35        36     0.17579        1.0080 ; qtot   -1.111
        37           h36bf         1   UNL       h36        37     0.14610        1.0080 ; qtot   -0.965
        38           h37bf         1   UNL       h37        38     0.13256        1.0080 ; qtot   -0.833
        39           h38bf         1   UNL       h38        39     0.12498        1.0080 ; qtot   -0.708
        40           h39bf         1   UNL       h39        40     0.13259        1.0080 ; qtot   -0.575
        41           h40bf         1   UNL       h40        41     0.02910        1.0080 ; qtot   -0.546
        42           h41bf         1   UNL       h41        42     0.12997        1.0080 ; qtot   -0.416
        43           h42bf         1   UNL       h42        43     0.15134        1.0080 ; qtot   -0.265
        44           h43bf         1   UNL       h43        44     0.13135        1.0080 ; qtot   -0.133
        45           h44bf         1   UNL       h44        45     0.13322        1.0080 ; qtot    0.000

[ bonds ]
;       ai        aj funct               r               k
         1         2     1        0.134864   220029.317676
         2         3     1        0.134864   220029.317676
         2         4     1        0.134864   220029.317676
         2         5     1        0.135666   213729.746924
         5         6     1        0.140967   208707.542383
         6         7     1        0.139445   303670.628955
         6        32     1        0.139445   303670.628955
         7         8     1        0.139533   327862.443408
         7        33     1        0.108428   324148.070850
         8         9     1        0.140323   287297.919873
         8        34     1        0.108425   324344.732129
         9        10     1        0.141474   245196.981689
         9        31     1        0.140323   287297.894336
        10        11     1        0.138361   251727.561133
        10        35     1        0.101091   419225.921191
        11        12     1        0.122725   593985.707227
        11        13     1        0.138886   239709.822998
        13        14     1        0.140423   262254.059766
        13        36     1        0.101419   408858.186768
        14        15     1        0.141455   241784.559912
        14        30     1        0.139669   302796.953369
        15        16     1        0.137972   227076.921436
        15        27     1        0.131650   340496.647363
        16        17     1        0.139076   226098.952295
        17        18     1        0.139458   302119.760303
        17        26     1        0.139507   300349.451270
        18        19     1        0.139683   306929.649316
        18        37     1        0.108435   325508.739111
        19        20     1        0.150642   194411.357812
        19        24     1        0.139893   298842.480908
        20        21     1        0.135848   221750.289014
        20        22     1        0.135848   221750.289014
        20        23     1        0.135848   221750.289014
        24        25     1        0.139776   311431.611865
        24        38     1        0.108475   324244.422363
        25        26     1        0.139703   315002.338184
        25        39     1        0.108575   321535.088281
        26        40     1        0.108471   324023.654053
        27        28     1        0.134429   311714.895020
        28        29     1        0.139139   305686.170850
        28        41     1        0.108728   317581.203174
        29        30     1        0.140003   313082.713672
        29        42     1        0.108503   324361.765381
        30        43     1        0.108193   330892.421436
        31        32     1        0.139533   327862.443408
        31        44     1        0.108425   324344.732129
        32        45     1        0.108428   324148.070850

[ angles ]
;       ai        aj        ak funct           theta             cth
         1         2         3     1      107.789635      688.122566
         1         2         4     1      107.789635      688.122566
         1         2         5     1      111.080368      593.957029
         2         5         6     1      118.484009      469.942314
         3         2         4     1      107.789635      688.122566
         3         2         5     1      111.080368      593.957029
         4         2         5     1      111.080368      593.957029
         5         6         7     1      119.493362      546.119511
         5         6        32     1      119.493362      546.119447
         6         7         8     1      119.667404      663.781423
         6         7        33     1      120.110886      439.898256
         6        32        31     1      119.667404      663.781423
         6        32        45     1      120.110886      439.898256
         7         6        32     1      120.773544      544.974810
         7         8         9     1      120.400551      726.947655
         7         8        34     1      119.827530      395.021415
         8         7        33     1      119.990219      422.360965
         8         9        10     1      120.710670      608.998450
         8         9        31     1      118.693748      466.142839
         9         8        34     1      119.781570      445.987420
         9        10        11     1      128.318619      460.296756
         9        10        35     1      114.794296      450.963549
         9        31        32     1      120.400551      726.947719
         9        31        44     1      119.781570      445.987420
        10         9        31     1      120.710670      608.998450
        10        11        12     1      124.614891      546.971174
        10        11        13     1      112.608353      544.959169
        11        10        35     1      116.246033      460.361876
        11        13        14     1      126.276352      452.689379
        11        13        36     1      117.628128      436.697435
        12        11        13     1      123.886490      550.707764
        13        14        15     1      117.626175      431.158851
        13        14        30     1      125.502136      569.232191
        14        13        36     1      114.048378      434.130349
        14        15        16     1      116.891190      365.084836
        14        15        27     1      124.298561      669.115487
        14        30        29     1      118.717087      830.537407
        14        30        43     1      119.480087      442.212844
        15        14        30     1      116.875977      643.692976
        15        16        17     1      118.996475      468.152993
        15        27        28     1      118.202881      715.701240
        16        15        27     1      119.251526      575.307278
        16        17        18     1      119.127602      475.579822
        16        17        26     1      119.560463      505.160382
        17        18        19     1      118.906960      675.205641
        17        18        37     1      119.610718      415.840096
        17        26        25     1      119.077614      700.722321
        17        26        40     1      119.664551      413.801469
        18        17        26     1      121.136398      642.560341
        18        19        20     1      119.258873      488.824357
        18        19        24     1      120.920876      664.961046
        19        18        37     1      121.073891      390.436674
        19        20        21     1      111.963486      590.221141
        19        20        22     1      111.963486      590.221141
        19        20        23     1      111.963486      590.221141
        19        24        25     1      119.033890      671.258051
        19        24        38     1      120.217079      418.336221
        20        19        24     1      119.563637      526.853294
        21        20        22     1      106.673416      701.102377
        21        20        23     1      106.673416      701.102377
        22        20        23     1      106.673416      701.102377
        24        25        26     1      120.545677      713.667337
        24        25        39     1      119.880020      433.195499
        25        24        38     1      120.676857      426.254353
        25        26        40     1      121.394608      418.058218
        26        25        39     1      119.583778      428.611077
        27        28        29     1      122.499290      661.638094
        27        28        41     1      116.190018      392.705071
        28        29        30     1      119.055466      724.683024
        28        29        42     1      120.600418      442.820723
        29        28        41     1      121.265182      408.189051
        29        30        43     1      121.786964      385.096928
        30        29        42     1      120.423500      439.039347
        31        32        45     1      119.990219      422.360965
        32        31        44     1      119.827530      395.021415

[ dihedrals ] ; propers for gromacs 4.5 or higher, use funct 9
;       ai        aj        ak        al funct           phase               k        pn
         1         2         5         6     9        0.000000        0.116564         1
         1         2         5         6     9      180.000000       -0.194264         2
         1         2         5         6     9        0.000000        1.252707         3
         1         2         5         6     9      180.000000       -0.000549         4
         2         5         6         7     9        0.000000       -0.154585         1
         2         5         6         7     9      180.000000        1.828369         2
         2         5         6         7     9        0.000000        0.069046         3
         2         5         6         7     9      180.000000        0.005501         4
         2         5         6        32     9        0.000000       -0.154585         1
         2         5         6        32     9      180.000000        1.828369         2
         2         5         6        32     9        0.000000        0.069046         3
         2         5         6        32     9      180.000000        0.005501         4
         3         2         5         6     9        0.000000        0.116564         1
         3         2         5         6     9      180.000000       -0.194264         2
         3         2         5         6     9        0.000000        1.252707         3
         3         2         5         6     9      180.000000       -0.000549         4
         4         2         5         6     9        0.000000        0.116564         1
         4         2         5         6     9      180.000000       -0.194264         2
         4         2         5         6     9        0.000000        1.252707         3
         4         2         5         6     9      180.000000       -0.000549         4
         5         6         7         8     9        0.000000        0.581632         1
         5         6         7         8     9      180.000000       18.503695         2
         5         6         7         8     9        0.000000        0.353273         3
         5         6         7         8     9      180.000000       -0.409629         4
         5         6         7        33     9        0.000000        0.207379         1
         5         6         7        33     9      180.000000       13.499285         2
         5         6         7        33     9        0.000000        0.095434         3
         5         6         7        33     9      180.000000        0.194477         4
         5         6        32        31     9        0.000000        0.581632         1
         5         6        32        31     9      180.000000       18.503695         2
         5         6        32        31     9        0.000000        0.353274         3
         5         6        32        31     9      180.000000       -0.409629         4
         5         6        32        45     9        0.000000        0.207380         1
         5         6        32        45     9      180.000000       13.499285         2
         5         6        32        45     9        0.000000        0.095434         3
         5         6        32        45     9      180.000000        0.194476         4
         6         7         8         9     9        0.000000       -0.107607         1
         6         7         8         9     9      180.000000       18.778119         2
         6         7         8         9     9        0.000000       -1.598431         3
         6         7         8         9     9      180.000000       -0.560085         4
         6         7         8        34     9        0.000000        0.153719         1
         6         7         8        34     9      180.000000       14.866393         2
         6         7         8        34     9        0.000000       -0.371659         3
         6         7         8        34     9      180.000000        0.067468         4
         6        32        31         9     9        0.000000       -0.107607         1
         6        32        31         9     9      180.000000       18.778119         2
         6        32        31         9     9        0.000000       -1.598432         3
         6        32        31         9     9      180.000000       -0.560085         4
         6        32        31        44     9        0.000000        0.153719         1
         6        32        31        44     9      180.000000       14.866396         2
         6        32        31        44     9        0.000000       -0.371659         3
         6        32        31        44     9      180.000000        0.067469         4
         7         6        32        31     9        0.000000       -0.016255         1
         7         6        32        31     9      180.000000       16.814132         2
         7         6        32        31     9        0.000000       -1.195827         3
         7         6        32        31     9      180.000000       -0.326129         4
         7         6        32        45     9        0.000000        0.081829         1
         7         6        32        45     9      180.000000       12.724012         2
         7         6        32        45     9        0.000000       -0.580575         3
         7         6        32        45     9      180.000000        0.149684         4
         7         8         9        10     9        0.000000        0.317687         1
         7         8         9        10     9      180.000000       16.922223         2
         7         8         9        10     9        0.000000        0.094846         3
         7         8         9        10     9      180.000000       -0.239036         4
         7         8         9        31     9        0.000000        0.007992         1
         7         8         9        31     9      180.000000       16.292047         2
         7         8         9        31     9        0.000000       -1.291468         3
         7         8         9        31     9      180.000000       -0.162802         4
         8         7         6        32     9        0.000000       -0.016255         1
         8         7         6        32     9      180.000000       16.814130         2
         8         7         6        32     9        0.000000       -1.195826         3
         8         7         6        32     9      180.000000       -0.326129         4
         8         9        10        11     9        0.000000        0.050801         1
         8         9        10        11     9      180.000000        1.652056         2
         8         9        10        11     9        0.000000       -0.187638         3
         8         9        10        11     9      180.000000        0.312775         4
         8         9        10        35     9        0.000000        0.020986         1
         8         9        10        35     9      180.000000        1.736250         2
         8         9        10        35     9        0.000000       -0.027645         3
         8         9        10        35     9      180.000000       -0.037843         4
         8         9        31        32     9        0.000000        0.007993         1
         8         9        31        32     9      180.000000       16.292047         2
         8         9        31        32     9        0.000000       -1.291468         3
         8         9        31        32     9      180.000000       -0.162801         4
         8         9        31        44     9        0.000000        0.169200         1
         8         9        31        44     9      180.000000       12.671206         2
         8         9        31        44     9        0.000000       -0.507606         3
         8         9        31        44     9      180.000000        0.121684         4
         9         8         7        33     9        0.000000        0.070365         1
         9         8         7        33     9      180.000000       14.433512         2
         9         8         7        33     9        0.000000       -0.509097         3
         9         8         7        33     9      180.000000        0.047992         4
         9        10        11        12     9        0.000000       -3.326496         1
         9        10        11        12     9      180.000000        4.659211         2
         9        10        11        12     9        0.000000       -0.615636         3
         9        10        11        12     9      180.000000       -0.229728         4
         9        10        11        13     9        0.000000        6.364926         1
         9        10        11        13     9      180.000000        5.766825         2
         9        10        11        13     9        0.000000       -0.023160         3
         9        10        11        13     9      180.000000       -0.123542         4
         9        31        32        45     9        0.000000        0.070366         1
         9        31        32        45     9      180.000000       14.433513         2
         9        31        32        45     9        0.000000       -0.509098         3
         9        31        32        45     9      180.000000        0.047991         4
        10         9         8        34     9        0.000000       -0.080423         1
        10         9         8        34     9      180.000000       13.134664         2
        10         9         8        34     9        0.000000       -0.285581         3
        10         9         8        34     9      180.000000        0.234511         4
        10         9        31        32     9        0.000000        0.317686         1
        10         9        31        32     9      180.000000       16.922225         2
        10         9        31        32     9        0.000000        0.094847         3
        10         9        31        32     9      180.000000       -0.239037         4
        10         9        31        44     9        0.000000       -0.080423         1
        10         9        31        44     9      180.000000       13.134664         2
        10         9        31        44     9        0.000000       -0.285581         3
        10         9        31        44     9      180.000000        0.234510         4
        10        11        13        14     9        0.000000        5.532905         1
        10        11        13        14     9      180.000000        6.358717         2
        10        11        13        14     9        0.000000       -0.051282         3
        10        11        13        14     9      180.000000       -0.158612         4
        10        11        13        36     9        0.000000        4.448996         1
        10        11        13        36     9      180.000000        6.844591         2
        10        11        13        36     9        0.000000       -0.391997         3
        10        11        13        36     9      180.000000        0.190844         4
        11        10         9        31     9        0.000000        0.050802         1
        11        10         9        31     9      180.000000        1.652056         2
        11        10         9        31     9        0.000000       -0.187638         3
        11        10         9        31     9      180.000000        0.312775         4
        11        13        14        15     9        0.000000       -1.891644         1
        11        13        14        15     9      180.000000        1.922334         2
        11        13        14        15     9        0.000000        0.305756         3
        11        13        14        15     9      180.000000       -0.046941         4
        11        13        14        30     9        0.000000       -0.468535         1
        11        13        14        30     9      180.000000        1.875921         2
        11        13        14        30     9        0.000000       -0.412224         3
        11        13        14        30     9      180.000000        0.469219         4
        12        11        10        35     9        0.000000       -1.928212         1
        12        11        10        35     9      180.000000        5.896343         2
        12        11        10        35     9        0.000000        0.137628         3
        12        11        10        35     9      180.000000        0.130541         4
        12        11        13        14     9        0.000000       -2.531743         1
        12        11        13        14     9      180.000000        4.872688         2
        12        11        13        14     9        0.000000       -0.696803         3
        12        11        13        14     9      180.000000       -0.176057         4
        12        11        13        36     9        0.000000       -2.204784         1
        12        11        13        36     9      180.000000        5.153816         2
        12        11        13        36     9        0.000000       -0.121163         3
        12        11        13        36     9      180.000000       -0.071652         4
        13        11        10        35     9        0.000000        4.782918         1
        13        11        10        35     9      180.000000        6.982784         2
        13        11        10        35     9        0.000000       -0.564198         3
        13        11        10        35     9      180.000000        0.312933         4
        13        14        15        16     9        0.000000        0.079118         1
        13        14        15        16     9      180.000000       15.943068         2
        13        14        15        16     9        0.000000        0.335160         3
        13        14        15        16     9      180.000000       -0.375931         4
        13        14        15        27     9        0.000000        0.220828         1
        13        14        15        27     9      180.000000       12.478480         2
        13        14        15        27     9        0.000000       -0.109575         3
        13        14        15        27     9      180.000000       -0.329487         4
        13        14        30        29     9        0.000000        0.334774         1
        13        14        30        29     9      180.000000       18.629022         2
        13        14        30        29     9        0.000000        0.316335         3
        13        14        30        29     9      180.000000       -0.464757         4
        13        14        30        43     9        0.000000        0.246514         1
        13        14        30        43     9      180.000000       14.352632         2
        13        14        30        43     9        0.000000       -0.128549         3
        13        14        30        43     9      180.000000        0.162568         4
        14        15        16        17     9        0.000000        2.791598         1
        14        15        16        17     9      180.000000        2.854338         2
        14        15        16        17     9        0.000000        0.008276         3
        14        15        16        17     9      180.000000       -0.081408         4
        14        15        27        28     9        0.000000        0.158669         1
        14        15        27        28     9      180.000000       23.115477         2
        14        15        27        28     9        0.000000       -0.233633         3
        14        15        27        28     9      180.000000       -0.071711         4
        14        30        29        28     9        0.000000        0.066168         1
        14        30        29        28     9      180.000000       18.396385         2
        14        30        29        28     9        0.000000       -2.102023         3
        14        30        29        28     9      180.000000       -0.535985         4
        14        30        29        42     9        0.000000        0.126273         1
        14        30        29        42     9      180.000000       15.018723         2
        14        30        29        42     9        0.000000       -0.647982         3
        14        30        29        42     9      180.000000       -0.080098         4
        15        14        13        36     9        0.000000        1.738828         1
        15        14        13        36     9      180.000000        1.587694         2
        15        14        13        36     9        0.000000        0.489557         3
        15        14        13        36     9      180.000000       -0.381082         4
        15        14        30        29     9        0.000000        0.030817         1
        15        14        30        29     9      180.000000       17.824404         2
        15        14        30        29     9        0.000000       -1.212316         3
        15        14        30        29     9      180.000000       -0.515062         4
        15        14        30        43     9        0.000000        0.112899         1
        15        14        30        43     9      180.000000       13.626117         2
        15        14        30        43     9        0.000000       -0.408094         3
        15        14        30        43     9      180.000000        0.036469         4
        15        16        17        18     9        0.000000       -0.096951         1
        15        16        17        18     9      180.000000        3.845559         2
        15        16        17        18     9        0.000000       -0.637444         3
        15        16        17        18     9      180.000000        0.505060         4
        15        16        17        26     9        0.000000        0.084530         1
        15        16        17        26     9      180.000000        3.730264         2
        15        16        17        26     9        0.000000       -0.527888         3
        15        16        17        26     9      180.000000        0.458010         4
        15        27        28        29     9        0.000000        0.056121         1
        15        27        28        29     9      180.000000       22.227408         2
        15        27        28        29     9        0.000000       -1.099500         3
        15        27        28        29     9      180.000000       -0.344180         4
        15        27        28        41     9        0.000000        1.036486         1
        15        27        28        41     9      180.000000       19.807955         2
        15        27        28        41     9        0.000000        0.288466         3
        15        27        28        41     9      180.000000       -0.599441         4
        16        15        14        30     9        0.000000        0.367062         1
        16        15        14        30     9      180.000000       12.897585         2
        16        15        14        30     9        0.000000        0.264182         3
        16        15        14        30     9      180.000000       -0.062919         4
        16        15        27        28     9        0.000000        0.951283         1
        16        15        27        28     9      180.000000       29.893619         2
        16        15        27        28     9        0.000000        1.349691         3
        16        15        27        28     9      180.000000       -0.721816         4
        16        17        18        19     9        0.000000        0.461177         1
        16        17        18        19     9      180.000000       18.685890         2
        16        17        18        19     9        0.000000        0.578921         3
        16        17        18        19     9      180.000000       -0.438095         4
        16        17        18        37     9        0.000000        0.241204         1
        16        17        18        37     9      180.000000       13.972061         2
        16        17        18        37     9        0.000000        0.209932         3
        16        17        18        37     9      180.000000        0.287732         4
        16        17        26        25     9        0.000000        0.691592         1
        16        17        26        25     9      180.000000       18.726701         2
        16        17        26        25     9        0.000000        0.679696         3
        16        17        26        25     9      180.000000       -0.385291         4
        16        17        26        40     9        0.000000        0.168961         1
        16        17        26        40     9      180.000000       14.166477         2
        16        17        26        40     9        0.000000        0.177157         3
        16        17        26        40     9      180.000000        0.249999         4
        17        16        15        27     9        0.000000       -1.163768         1
        17        16        15        27     9      180.000000        4.059283         2
        17        16        15        27     9        0.000000       -0.809870         3
        17        16        15        27     9      180.000000       -0.060209         4
        17        18        19        20     9        0.000000        0.215367         1
        17        18        19        20     9      180.000000       15.224711         2
        17        18        19        20     9        0.000000        0.160888         3
        17        18        19        20     9      180.000000       -0.294407         4
        17        18        19        24     9        0.000000       -0.080830         1
        17        18        19        24     9      180.000000       18.431429         2
        17        18        19        24     9        0.000000       -1.585222         3
        17        18        19        24     9      180.000000       -0.412846         4
        17        26        25        24     9        0.000000       -0.065058         1
        17        26        25        24     9      180.000000       18.729965         2
        17        26        25        24     9        0.000000       -1.425256         3
        17        26        25        24     9      180.000000       -0.471228         4
        17        26        25        39     9        0.000000        0.047457         1
        17        26        25        39     9      180.000000       14.866803         2
        17        26        25        39     9        0.000000       -0.511681         3
        17        26        25        39     9      180.000000        0.022194         4
        18        17        26        25     9        0.000000        0.009737         1
        18        17        26        25     9      180.000000       16.835914         2
        18        17        26        25     9        0.000000       -0.933731         3
        18        17        26        25     9      180.000000       -0.219708         4
        18        17        26        40     9        0.000000        0.042221         1
        18        17        26        40     9      180.000000       13.111511         2
        18        17        26        40     9        0.000000       -0.535863         3
        18        17        26        40     9      180.000000        0.136008         4
        18        19        20        21     9        0.000000       -0.056845         1
        18        19        20        21     9      180.000000        0.147565         2
        18        19        20        21     9        0.000000        0.094344         3
        18        19        20        21     9      180.000000        0.023205         4
        18        19        20        22     9        0.000000       -0.056845         1
        18        19        20        22     9      180.000000        0.147565         2
        18        19        20        22     9        0.000000        0.094344         3
        18        19        20        22     9      180.000000        0.023205         4
        18        19        20        23     9        0.000000       -0.056845         1
        18        19        20        23     9      180.000000        0.147565         2
        18        19        20        23     9        0.000000        0.094344         3
        18        19        20        23     9      180.000000        0.023205         4
        18        19        24        25     9        0.000000       -0.097627         1
        18        19        24        25     9      180.000000       18.802132         2
        18        19        24        25     9        0.000000       -1.614990         3
        18        19        24        25     9      180.000000       -0.392323         4
        18        19        24        38     9        0.000000        0.086681         1
        18        19        24        38     9      180.000000       14.632807         2
        18        19        24        38     9        0.000000       -0.721878         3
        18        19        24        38     9      180.000000        0.027500         4
        19        18        17        26     9        0.000000        0.131992         1
        19        18        17        26     9      180.000000       17.207646         2
        19        18        17        26     9        0.000000       -0.953156         3
        19        18        17        26     9      180.000000       -0.284457         4
        19        24        25        26     9        0.000000        0.076386         1
        19        24        25        26     9      180.000000       18.872774         2
        19        24        25        26     9        0.000000       -1.670060         3
        19        24        25        26     9      180.000000       -0.377129         4
        19        24        25        39     9        0.000000        0.075182         1
        19        24        25        39     9      180.000000       14.906743         2
        19        24        25        39     9        0.000000       -0.691169         3
        19        24        25        39     9      180.000000        0.085826         4
        20        19        18        37     9        0.000000        0.062054         1
        20        19        18        37     9      180.000000       12.135618         2
        20        19        18        37     9        0.000000       -0.273581         3
        20        19        18        37     9      180.000000        0.098556         4
        20        19        24        25     9        0.000000        0.052565         1
        20        19        24        25     9      180.000000       15.093531         2
        20        19        24        25     9        0.000000       -0.022061         3
        20        19        24        25     9      180.000000       -0.279823         4
        20        19        24        38     9        0.000000        0.021647         1
        20        19        24        38     9      180.000000       12.001621         2
        20        19        24        38     9        0.000000       -0.324659         3
        20        19        24        38     9      180.000000        0.133723         4
        21        20        19        24     9        0.000000       -0.024665         1
        21        20        19        24     9      180.000000        0.065953         2
        21        20        19        24     9        0.000000        0.107954         3
        21        20        19        24     9      180.000000        0.013499         4
        22        20        19        24     9        0.000000       -0.024665         1
        22        20        19        24     9      180.000000        0.065953         2
        22        20        19        24     9        0.000000        0.107954         3
        22        20        19        24     9      180.000000        0.013499         4
        23        20        19        24     9        0.000000       -0.024665         1
        23        20        19        24     9      180.000000        0.065953         2
        23        20        19        24     9        0.000000        0.107954         3
        23        20        19        24     9      180.000000        0.013499         4
        24        19        18        37     9        0.000000        0.048364         1
        24        19        18        37     9      180.000000       14.235145         2
        24        19        18        37     9        0.000000       -0.596557         3
        24        19        18        37     9      180.000000        0.051989         4
        24        25        26        40     9        0.000000        0.108181         1
        24        25        26        40     9      180.000000       14.195930         2
        24        25        26        40     9        0.000000       -0.624026         3
        24        25        26        40     9      180.000000        0.118250         4
        26        17        18        37     9        0.000000        0.056010         1
        26        17        18        37     9      180.000000       12.890448         2
        26        17        18        37     9        0.000000       -0.522917         3
        26        17        18        37     9      180.000000        0.185410         4
        26        25        24        38     9        0.000000        0.117525         1
        26        25        24        38     9      180.000000       14.934186         2
        26        25        24        38     9        0.000000       -0.834549         3
        26        25        24        38     9      180.000000        0.101173         4
        27        15        14        30     9        0.000000        0.040752         1
        27        15        14        30     9      180.000000       10.972651         2
        27        15        14        30     9        0.000000       -0.517360         3
        27        15        14        30     9      180.000000       -0.118747         4
        27        28        29        30     9        0.000000        0.100605         1
        27        28        29        30     9      180.000000       20.168024         2
        27        28        29        30     9        0.000000       -1.195335         3
        27        28        29        30     9      180.000000       -0.567771         4
        27        28        29        42     9        0.000000        0.174483         1
        27        28        29        42     9      180.000000       15.688095         2
        27        28        29        42     9        0.000000       -0.259874         3
        27        28        29        42     9      180.000000       -0.156477         4
        28        29        30        43     9        0.000000        0.167049         1
        28        29        30        43     9      180.000000       14.479790         2
        28        29        30        43     9        0.000000       -0.751910         3
        28        29        30        43     9      180.000000        0.148426         4
        30        14        13        36     9        0.000000        0.403978         1
        30        14        13        36     9      180.000000        2.149404         2
        30        14        13        36     9        0.000000        0.432385         3
        30        14        13        36     9      180.000000       -0.165767         4
        30        29        28        41     9        0.000000        0.082489         1
        30        29        28        41     9      180.000000       14.362334         2
        30        29        28        41     9        0.000000       -0.749613         3
        30        29        28        41     9      180.000000        0.097547         4
        31         9         8        34     9        0.000000        0.169199         1
        31         9         8        34     9      180.000000       12.671206         2
        31         9         8        34     9        0.000000       -0.507606         3
        31         9         8        34     9      180.000000        0.121684         4
        31         9        10        35     9        0.000000        0.020986         1
        31         9        10        35     9      180.000000        1.736250         2
        31         9        10        35     9        0.000000       -0.027645         3
        31         9        10        35     9      180.000000       -0.037843         4
        32         6         7        33     9        0.000000        0.081827         1
        32         6         7        33     9      180.000000       12.724013         2
        32         6         7        33     9        0.000000       -0.580575         3
        32         6         7        33     9      180.000000        0.149684         4
        33         7         8        34     9        0.000000       -0.163545         1
        33         7         8        34     9      180.000000       12.353169         2
        33         7         8        34     9        0.000000       -0.679803         3
        33         7         8        34     9      180.000000        0.281767         4
        38        24        25        39     9        0.000000       -0.153392         1
        38        24        25        39     9      180.000000       11.890617         2
        38        24        25        39     9        0.000000       -0.780758         3
        38        24        25        39     9      180.000000        0.311358         4
        39        25        26        40     9        0.000000       -0.117711         1
        39        25        26        40     9      180.000000       11.992923         2
        39        25        26        40     9        0.000000       -0.643510         3
        39        25        26        40     9      180.000000        0.217301         4
        41        28        29        42     9        0.000000       -0.153197         1
        41        28        29        42     9      180.000000       12.054830         2
        41        28        29        42     9        0.000000       -0.693173         3
        41        28        29        42     9      180.000000        0.290660         4
        42        29        30        43     9        0.000000       -0.114528         1
        42        29        30        43     9      180.000000       11.840300         2
        42        29        30        43     9        0.000000       -0.671560         3
        42        29        30        43     9      180.000000        0.313357         4
        44        31        32        45     9        0.000000       -0.163545         1
        44        31        32        45     9      180.000000       12.353168         2
        44        31        32        45     9        0.000000       -0.679803         3
        44        31        32        45     9      180.000000        0.281767         4

[ dihedrals ] ; impropers
;       ai        aj        ak        al funct           phase               k        pn
        11        10        12        13     4      180.000000       20.276483         2
        11        12        13        10     4      180.000000       20.276483         2
        11        13        10        12     4      180.000000       20.276483         2
        18        17        19        37     4      180.000000        0.020954         2
        18        19        37        17     4      180.000000        0.020954         2
        18        37        17        19     4      180.000000        0.020954         2
        25        24        26        39     4      180.000000        1.974818         2
        25        26        39        24     4      180.000000        1.974818         2
        25        39        24        26     4      180.000000        1.974818         2
        26        17        25        40     4      180.000000        0.552125         2
        26        25        40        17     4      180.000000        0.552125         2
        26        40        17        25     4      180.000000        0.552125         2
        28        27        29        41     4      180.000000        0.546115         2
        28        29        41        27     4      180.000000        0.546115         2
        28        41        27        29     4      180.000000        0.546115         2

[ pairs ]
;       ai        aj funct
         1         6     1
         2         7     1
         2        32     1
         3         6     1
         4         6     1
         5         8     1
         5        31     1
         5        33     1
         5        45     1
         6         9     1
         6        34     1
         6        44     1
         7        10     1
         7        31     1
         7        45     1
         8        11     1
         8        32     1
         8        35     1
         8        44     1
         9        12     1
         9        13     1
         9        33     1
         9        45     1
        10        14     1
        10        32     1
        10        34     1
        10        36     1
        10        44     1
        11        15     1
        11        30     1
        11        31     1
        12        14     1
        12        35     1
        12        36     1
        13        16     1
        13        27     1
        13        29     1
        13        35     1
        13        43     1
        14        17     1
        14        28     1
        14        42     1
        15        18     1
        15        26     1
        15        29     1
        15        36     1
        15        41     1
        15        43     1
        16        19     1
        16        25     1
        16        28     1
        16        30     1
        16        37     1
        16        40     1
        17        20     1
        17        24     1
        17        27     1
        17        39     1
        18        21     1
        18        22     1
        18        23     1
        18        25     1
        18        38     1
        18        40     1
        19        26     1
        19        39     1
        20        25     1
        20        37     1
        20        38     1
        21        24     1
        22        24     1
        23        24     1
        24        37     1
        24        40     1
        26        37     1
        26        38     1
        27        30     1
        27        42     1
        28        43     1
        30        36     1
        30        41     1
        31        34     1
        31        35     1
        32        33     1
        33        34     1
        38        39     1
        39        40     1
        41        42     1
        42        43     1
        44        45     1
