; ITP file created by ByteFF-ML, 2025-12-06 04:47:31.340698

[ atomtypes ]
;name           bonded.type        at.num        mass        charge   ptype           sigma         epsilon
 f0bf                                   9      0.0000       0.00000       A     3.03451e-01     3.47961e-01
 c1bf                                   6      0.0000       0.00000       A     3.39851e-01     4.48847e-01
 f2bf                                   9      0.0000       0.00000       A     3.03451e-01     3.47961e-01
 f3bf                                   9      0.0000       0.00000       A     3.03451e-01     3.47961e-01
 c4bf                                   6      0.0000       0.00000       A     3.31621e-01     4.13384e-01
 c5bf                                   6      0.0000       0.00000       A     3.31475e-01     4.13159e-01
 c6bf                                   6      0.0000       0.00000       A     3.31584e-01     4.14956e-01
 o7bf                                   8      0.0000       0.00000       A     3.15756e-01     3.08030e-01
 c8bf                                   6      0.0000       0.00000       A     3.31241e-01     4.10680e-01
 c9bf                                   6      0.0000       0.00000       A     3.31219e-01     4.13182e-01
 n10bf                                  7      0.0000       0.00000       A     3.26853e-01     4.96156e-01
 c11bf                                  6      0.0000       0.00000       A     3.31259e-01     4.14898e-01
 o12bf                                  8      0.0000       0.00000       A     3.04781e-01     6.14498e-01
 n13bf                                  7      0.0000       0.00000       A     3.27155e-01     4.89269e-01
 c14bf                                  6      0.0000       0.00000       A     3.31332e-01     4.11216e-01
 c15bf                                  6      0.0000       0.00000       A     3.31448e-01     4.11586e-01
 c16bf                                  6      0.0000       0.00000       A     3.31484e-01     4.12503e-01
 c17bf                                  6      0.0000       0.00000       A     3.31370e-01     4.14202e-01
 o18bf                                  8      0.0000       0.00000       A     3.15888e-01     3.04118e-01
 c19bf                                  6      0.0000       0.00000       A     3.39778e-01     4.49916e-01
 c20bf                                  6      0.0000       0.00000       A     3.31484e-01     4.12503e-01
 c21bf                                  6      0.0000       0.00000       A     3.31448e-01     4.11586e-01
 c22bf                                  6      0.0000       0.00000       A     3.31584e-01     4.13224e-01
 c23bf                                  6      0.0000       0.00000       A     3.31481e-01     4.12981e-01
 c24bf                                  6      0.0000       0.00000       A     3.31514e-01     4.12560e-01
 n25bf                                  7      0.0000       0.00000       A     3.38247e-01     3.91955e-01
 c26bf                                  6      0.0000       0.00000       A     3.31510e-01     4.13886e-01
 c27bf                                  6      0.0000       0.00000       A     3.31532e-01     4.13738e-01
 c28bf                                  6      0.0000       0.00000       A     3.31502e-01     4.12745e-01
 h29bf                                  1      0.0000       0.00000       A     2.62520e-01     6.72073e-02
 h30bf                                  1      0.0000       0.00000       A     1.10974e-01     4.12520e-02
 h31bf                                  1      0.0000       0.00000       A     1.10460e-01     4.18649e-02
 h32bf                                  1      0.0000       0.00000       A     2.62511e-01     6.75999e-02
 h33bf                                  1      0.0000       0.00000       A     2.62481e-01     6.70078e-02
 h34bf                                  1      0.0000       0.00000       A     2.42080e-01     8.75859e-02
 h35bf                                  1      0.0000       0.00000       A     2.42080e-01     8.75859e-02
 h36bf                                  1      0.0000       0.00000       A     2.42080e-01     8.75859e-02
 h37bf                                  1      0.0000       0.00000       A     2.62481e-01     6.70078e-02
 h38bf                                  1      0.0000       0.00000       A     2.62511e-01     6.75999e-02
 h39bf                                  1      0.0000       0.00000       A     2.62621e-01     6.73062e-02
 h40bf                                  1      0.0000       0.00000       A     2.62506e-01     6.74387e-02
 h41bf                                  1      0.0000       0.00000       A     2.53538e-01     6.71594e-02
 h42bf                                  1      0.0000       0.00000       A     2.62525e-01     6.72408e-02
 h43bf                                  1      0.0000       0.00000       A     2.62527e-01     6.72711e-02
 h44bf                                  1      0.0000       0.00000       A     2.62655e-01     6.75361e-02

[ moleculetype ]
;name             nrexcl
 6l                    3

[ atoms ]
;       nr            type      resi   res      atom      cgnr      charge          mass ; qtot
         1            f0bf         1   UNL        f0         1    -0.10409       18.9980 ; qtot   -0.104
         2            c1bf         1   UNL        c1         2     0.33660       12.0110 ; qtot    0.233
         3            f2bf         1   UNL        f2         3    -0.10409       18.9980 ; qtot    0.128
         4            f3bf         1   UNL        f3         4    -0.10409       18.9980 ; qtot    0.024
         5            c4bf         1   UNL        c4         5    -0.16367       12.0110 ; qtot   -0.139
         6            c5bf         1   UNL        c5         6    -0.06086       12.0110 ; qtot   -0.200
         7            c6bf         1   UNL        c6         7     0.11228       12.0110 ; qtot   -0.088
         8            o7bf         1   UNL        o7         8    -0.38334       15.9990 ; qtot   -0.471
         9            c8bf         1   UNL        c8         9     0.51952       12.0110 ; qtot    0.048
        10            c9bf         1   UNL        c9        10    -0.06788       12.0110 ; qtot   -0.020
        11           n10bf         1   UNL       n10        11    -0.15042       14.0070 ; qtot   -0.170
        12           c11bf         1   UNL       c11        12     0.65911       12.0110 ; qtot    0.489
        13           o12bf         1   UNL       o12        13    -0.59569       15.9990 ; qtot   -0.107
        14           n13bf         1   UNL       n13        14    -0.16106       14.0070 ; qtot   -0.268
        15           c14bf         1   UNL       c14        15    -0.04617       12.0110 ; qtot   -0.314
        16           c15bf         1   UNL       c15        16    -0.11526       12.0110 ; qtot   -0.429
        17           c16bf         1   UNL       c16        17    -0.14971       12.0110 ; qtot   -0.579
        18           c17bf         1   UNL       c17        18     0.11703       12.0110 ; qtot   -0.462
        19           o18bf         1   UNL       o18        19    -0.34624       15.9990 ; qtot   -0.808
        20           c19bf         1   UNL       c19        20     0.14272       12.0110 ; qtot   -0.665
        21           c20bf         1   UNL       c20        21    -0.14971       12.0110 ; qtot   -0.815
        22           c21bf         1   UNL       c21        22    -0.11526       12.0110 ; qtot   -0.930
        23           c22bf         1   UNL       c22        23    -0.08259       12.0110 ; qtot   -1.013
        24           c23bf         1   UNL       c23        24    -0.15962       12.0110 ; qtot   -1.172
        25           c24bf         1   UNL       c24        25     0.34178       12.0110 ; qtot   -0.831
        26           n25bf         1   UNL       n25        26    -0.70598       14.0070 ; qtot   -1.537
        27           c26bf         1   UNL       c26        27    -0.11065       12.0110 ; qtot   -1.647
        28           c27bf         1   UNL       c27        28    -0.09237       12.0110 ; qtot   -1.740
        29           c28bf         1   UNL       c28        29    -0.07766       12.0110 ; qtot   -1.817
        30           h29bf         1   UNL       h29        30     0.14610        1.0080 ; qtot   -1.671
        31           h30bf         1   UNL       h30        31     0.17579        1.0080 ; qtot   -1.495
        32           h31bf         1   UNL       h31        32     0.15557        1.0080 ; qtot   -1.340
        33           h32bf         1   UNL       h32        33     0.13135        1.0080 ; qtot   -1.209
        34           h33bf         1   UNL       h33        34     0.12418        1.0080 ; qtot   -1.084
        35           h34bf         1   UNL       h34        35     0.04277        1.0080 ; qtot   -1.042
        36           h35bf         1   UNL       h35        36     0.04277        1.0080 ; qtot   -0.999
        37           h36bf         1   UNL       h36        37     0.04277        1.0080 ; qtot   -0.956
        38           h37bf         1   UNL       h37        38     0.12418        1.0080 ; qtot   -0.832
        39           h38bf         1   UNL       h38        39     0.13135        1.0080 ; qtot   -0.701
        40           h39bf         1   UNL       h39        40     0.15134        1.0080 ; qtot   -0.549
        41           h40bf         1   UNL       h40        41     0.12997        1.0080 ; qtot   -0.419
        42           h41bf         1   UNL       h41        42     0.02910        1.0080 ; qtot   -0.390
        43           h42bf         1   UNL       h42        43     0.13259        1.0080 ; qtot   -0.258
        44           h43bf         1   UNL       h43        44     0.12498        1.0080 ; qtot   -0.133
        45           h44bf         1   UNL       h44        45     0.13256        1.0080 ; qtot   -0.000

[ bonds ]
;       ai        aj funct               r               k
         1         2     1        0.135848   221750.237939
         2         3     1        0.135848   221750.237939
         2         4     1        0.135848   221750.237939
         2         5     1        0.150642   194411.357812
         5         6     1        0.139683   306929.649316
         5        29     1        0.139893   298842.506445
         6         7     1        0.139458   302119.734766
         6        30     1        0.108435   325508.739111
         7         8     1        0.139076   226098.952295
         7        27     1        0.139507   300349.451270
         8         9     1        0.137972   227076.921436
         9        10     1        0.141455   241784.559912
         9        26     1        0.131650   340496.647363
        10        11     1        0.140423   262254.059766
        10        23     1        0.139669   302796.953369
        11        12     1        0.138886   239709.822998
        11        31     1        0.101419   408858.186768
        12        13     1        0.122725   593985.707227
        12        14     1        0.138361   251727.561133
        14        15     1        0.141474   245196.981689
        14        32     1        0.101091   419225.921191
        15        16     1        0.140323   287297.919873
        15        22     1        0.140323   287297.919873
        16        17     1        0.139572   327439.319043
        16        33     1        0.108425   324344.732129
        17        18     1        0.140231   288152.340479
        17        34     1        0.108442   322810.258301
        18        19     1        0.137015   267424.966895
        18        21     1        0.140231   288152.340479
        19        20     1        0.142441   208856.819556
        20        35     1        0.109438   297412.683691
        20        36     1        0.109438   297412.683691
        20        37     1        0.109438   297412.683691
        21        22     1        0.139572   327439.293506
        21        38     1        0.108442   322810.258301
        22        39     1        0.108425   324344.732129
        23        24     1        0.140003   313082.713672
        23        40     1        0.108193   330892.395898
        24        25     1        0.139139   305686.170850
        24        41     1        0.108503   324361.765381
        25        26     1        0.134429   311714.895020
        25        42     1        0.108728   317581.203174
        27        28     1        0.139703   315002.338184
        27        43     1        0.108471   324023.654053
        28        29     1        0.139776   311431.637402
        28        44     1        0.108575   321535.088281
        29        45     1        0.108475   324244.422363

[ angles ]
;       ai        aj        ak funct           theta             cth
         1         2         3     1      106.673416      701.102313
         1         2         4     1      106.673416      701.102313
         1         2         5     1      111.963486      590.221141
         2         5         6     1      119.258873      488.824389
         2         5        29     1      119.563637      526.853294
         3         2         4     1      106.673416      701.102313
         3         2         5     1      111.963486      590.221141
         4         2         5     1      111.963486      590.221141
         5         6         7     1      118.906960      675.205641
         5         6        30     1      121.073891      390.436642
         5        29        28     1      119.033890      671.258051
         5        29        45     1      120.217079      418.336221
         6         5        29     1      120.920876      664.961110
         6         7         8     1      119.127602      475.579886
         6         7        27     1      121.136398      642.560405
         7         6        30     1      119.610718      415.840160
         7         8         9     1      118.996475      468.152929
         7        27        28     1      119.077614      700.722384
         7        27        43     1      119.664551      413.801469
         8         7        27     1      119.560463      505.160382
         8         9        10     1      116.891190      365.084836
         8         9        26     1      119.251526      575.307278
         9        10        11     1      117.626175      431.158851
         9        10        23     1      116.875977      643.692976
         9        26        25     1      118.202881      715.701240
        10         9        26     1      124.298561      669.115487
        10        11        12     1      126.276352      452.689443
        10        11        31     1      114.048378      434.130349
        10        23        24     1      118.717087      830.537471
        10        23        40     1      119.480087      442.212908
        11        10        23     1      125.502136      569.232191
        11        12        13     1      123.886490      550.707764
        11        12        14     1      112.608353      544.959169
        12        11        31     1      117.628128      436.697435
        12        14        15     1      128.318619      460.296756
        12        14        32     1      116.246033      460.361876
        13        12        14     1      124.614906      546.971174
        14        15        16     1      120.710670      608.998450
        14        15        22     1      120.710670      608.998450
        15        14        32     1      114.794296      450.963549
        15        16        17     1      120.571571      710.023447
        15        16        33     1      119.781570      445.987420
        15        22        21     1      120.571571      710.023447
        15        22        39     1      119.781570      445.987420
        16        15        22     1      118.693748      466.142839
        16        17        18     1      120.374695      734.480081
        16        17        34     1      119.474693      430.842286
        17        16        33     1      119.727211      396.811534
        17        18        19     1      120.800758      579.961161
        17        18        21     1      119.241615      521.355506
        18        17        34     1      120.167679      439.674200
        18        19        20     1      117.890480      564.265224
        18        21        22     1      120.374695      734.480081
        18        21        38     1      120.167679      439.674200
        19        18        21     1      120.800758      579.961161
        19        20        35     1      109.552940      448.831711
        19        20        36     1      109.552940      448.831711
        19        20        37     1      109.552940      448.831711
        21        22        39     1      119.727211      396.811502
        22        21        38     1      119.474693      430.842254
        23        24        25     1      119.055466      724.683024
        23        24        41     1      120.423485      439.039411
        24        23        40     1      121.786972      385.096896
        24        25        26     1      122.499290      661.638094
        24        25        42     1      121.265182      408.189051
        25        24        41     1      120.600418      442.820723
        26        25        42     1      116.190018      392.705071
        27        28        29     1      120.545692      713.667209
        27        28        44     1      119.583778      428.611077
        28        27        43     1      121.394608      418.058218
        28        29        45     1      120.676865      426.254289
        29        28        44     1      119.880020      433.195531
        35        20        36     1      109.477646      342.882171
        35        20        37     1      109.477646      342.882171
        36        20        37     1      109.477646      342.882171

[ dihedrals ] ; propers for gromacs 4.5 or higher, use funct 9
;       ai        aj        ak        al funct           phase               k        pn
         1         2         5         6     9        0.000000       -0.056845         1
         1         2         5         6     9      180.000000        0.147564         2
         1         2         5         6     9        0.000000        0.094344         3
         1         2         5         6     9      180.000000        0.023205         4
         1         2         5        29     9        0.000000       -0.024666         1
         1         2         5        29     9      180.000000        0.065951         2
         1         2         5        29     9        0.000000        0.107954         3
         1         2         5        29     9      180.000000        0.013499         4
         2         5         6         7     9        0.000000        0.215367         1
         2         5         6         7     9      180.000000       15.224711         2
         2         5         6         7     9        0.000000        0.160889         3
         2         5         6         7     9      180.000000       -0.294407         4
         2         5         6        30     9        0.000000        0.062054         1
         2         5         6        30     9      180.000000       12.135615         2
         2         5         6        30     9        0.000000       -0.273581         3
         2         5         6        30     9      180.000000        0.098556         4
         2         5        29        28     9        0.000000        0.052564         1
         2         5        29        28     9      180.000000       15.093531         2
         2         5        29        28     9        0.000000       -0.022061         3
         2         5        29        28     9      180.000000       -0.279823         4
         2         5        29        45     9        0.000000        0.021646         1
         2         5        29        45     9      180.000000       12.001621         2
         2         5        29        45     9        0.000000       -0.324659         3
         2         5        29        45     9      180.000000        0.133723         4
         3         2         5         6     9        0.000000       -0.056845         1
         3         2         5         6     9      180.000000        0.147564         2
         3         2         5         6     9        0.000000        0.094344         3
         3         2         5         6     9      180.000000        0.023205         4
         3         2         5        29     9        0.000000       -0.024666         1
         3         2         5        29     9      180.000000        0.065951         2
         3         2         5        29     9        0.000000        0.107954         3
         3         2         5        29     9      180.000000        0.013499         4
         4         2         5         6     9        0.000000       -0.056845         1
         4         2         5         6     9      180.000000        0.147564         2
         4         2         5         6     9        0.000000        0.094344         3
         4         2         5         6     9      180.000000        0.023205         4
         4         2         5        29     9        0.000000       -0.024666         1
         4         2         5        29     9      180.000000        0.065951         2
         4         2         5        29     9        0.000000        0.107954         3
         4         2         5        29     9      180.000000        0.013499         4
         5         6         7         8     9        0.000000        0.461178         1
         5         6         7         8     9      180.000000       18.685890         2
         5         6         7         8     9        0.000000        0.578921         3
         5         6         7         8     9      180.000000       -0.438095         4
         5         6         7        27     9        0.000000        0.131992         1
         5         6         7        27     9      180.000000       17.207648         2
         5         6         7        27     9        0.000000       -0.953156         3
         5         6         7        27     9      180.000000       -0.284457         4
         5        29        28        27     9        0.000000        0.076388         1
         5        29        28        27     9      180.000000       18.872772         2
         5        29        28        27     9        0.000000       -1.670059         3
         5        29        28        27     9      180.000000       -0.377128         4
         5        29        28        44     9        0.000000        0.075182         1
         5        29        28        44     9      180.000000       14.906743         2
         5        29        28        44     9        0.000000       -0.691169         3
         5        29        28        44     9      180.000000        0.085825         4
         6         5        29        28     9        0.000000       -0.097626         1
         6         5        29        28     9      180.000000       18.802134         2
         6         5        29        28     9        0.000000       -1.614990         3
         6         5        29        28     9      180.000000       -0.392323         4
         6         5        29        45     9        0.000000        0.086682         1
         6         5        29        45     9      180.000000       14.632806         2
         6         5        29        45     9        0.000000       -0.721878         3
         6         5        29        45     9      180.000000        0.027501         4
         6         7         8         9     9        0.000000       -0.096951         1
         6         7         8         9     9      180.000000        3.845560         2
         6         7         8         9     9        0.000000       -0.637443         3
         6         7         8         9     9      180.000000        0.505060         4
         6         7        27        28     9        0.000000        0.009736         1
         6         7        27        28     9      180.000000       16.835914         2
         6         7        27        28     9        0.000000       -0.933731         3
         6         7        27        28     9      180.000000       -0.219708         4
         6         7        27        43     9        0.000000        0.042221         1
         6         7        27        43     9      180.000000       13.111511         2
         6         7        27        43     9        0.000000       -0.535863         3
         6         7        27        43     9      180.000000        0.136008         4
         7         6         5        29     9        0.000000       -0.080829         1
         7         6         5        29     9      180.000000       18.431429         2
         7         6         5        29     9        0.000000       -1.585221         3
         7         6         5        29     9      180.000000       -0.412846         4
         7         8         9        10     9        0.000000        2.791597         1
         7         8         9        10     9      180.000000        2.854338         2
         7         8         9        10     9        0.000000        0.008276         3
         7         8         9        10     9      180.000000       -0.081408         4
         7         8         9        26     9        0.000000       -1.163770         1
         7         8         9        26     9      180.000000        4.059284         2
         7         8         9        26     9        0.000000       -0.809870         3
         7         8         9        26     9      180.000000       -0.060210         4
         7        27        28        29     9        0.000000       -0.065058         1
         7        27        28        29     9      180.000000       18.729965         2
         7        27        28        29     9        0.000000       -1.425256         3
         7        27        28        29     9      180.000000       -0.471228         4
         7        27        28        44     9        0.000000        0.047456         1
         7        27        28        44     9      180.000000       14.866803         2
         7        27        28        44     9        0.000000       -0.511681         3
         7        27        28        44     9      180.000000        0.022194         4
         8         7         6        30     9        0.000000        0.241204         1
         8         7         6        30     9      180.000000       13.972061         2
         8         7         6        30     9        0.000000        0.209932         3
         8         7         6        30     9      180.000000        0.287732         4
         8         7        27        28     9        0.000000        0.691592         1
         8         7        27        28     9      180.000000       18.726699         2
         8         7        27        28     9        0.000000        0.679696         3
         8         7        27        28     9      180.000000       -0.385291         4
         8         7        27        43     9        0.000000        0.168960         1
         8         7        27        43     9      180.000000       14.166477         2
         8         7        27        43     9        0.000000        0.177158         3
         8         7        27        43     9      180.000000        0.249999         4
         8         9        10        11     9        0.000000        0.079118         1
         8         9        10        11     9      180.000000       15.943068         2
         8         9        10        11     9        0.000000        0.335160         3
         8         9        10        11     9      180.000000       -0.375931         4
         8         9        10        23     9        0.000000        0.367063         1
         8         9        10        23     9      180.000000       12.897584         2
         8         9        10        23     9        0.000000        0.264182         3
         8         9        10        23     9      180.000000       -0.062919         4
         8         9        26        25     9        0.000000        0.951283         1
         8         9        26        25     9      180.000000       29.893619         2
         8         9        26        25     9        0.000000        1.349691         3
         8         9        26        25     9      180.000000       -0.721816         4
         9         8         7        27     9        0.000000        0.084530         1
         9         8         7        27     9      180.000000        3.730263         2
         9         8         7        27     9        0.000000       -0.527888         3
         9         8         7        27     9      180.000000        0.458010         4
         9        10        11        12     9        0.000000       -1.891644         1
         9        10        11        12     9      180.000000        1.922334         2
         9        10        11        12     9        0.000000        0.305757         3
         9        10        11        12     9      180.000000       -0.046941         4
         9        10        11        31     9        0.000000        1.738829         1
         9        10        11        31     9      180.000000        1.587693         2
         9        10        11        31     9        0.000000        0.489558         3
         9        10        11        31     9      180.000000       -0.381082         4
         9        10        23        24     9        0.000000        0.030815         1
         9        10        23        24     9      180.000000       17.824404         2
         9        10        23        24     9        0.000000       -1.212316         3
         9        10        23        24     9      180.000000       -0.515062         4
         9        10        23        40     9        0.000000        0.112899         1
         9        10        23        40     9      180.000000       13.626115         2
         9        10        23        40     9        0.000000       -0.408094         3
         9        10        23        40     9      180.000000        0.036470         4
         9        26        25        24     9        0.000000        0.056121         1
         9        26        25        24     9      180.000000       22.227408         2
         9        26        25        24     9        0.000000       -1.099500         3
         9        26        25        24     9      180.000000       -0.344180         4
         9        26        25        42     9        0.000000        1.036486         1
         9        26        25        42     9      180.000000       19.807955         2
         9        26        25        42     9        0.000000        0.288466         3
         9        26        25        42     9      180.000000       -0.599441         4
        10         9        26        25     9        0.000000        0.158669         1
        10         9        26        25     9      180.000000       23.115477         2
        10         9        26        25     9        0.000000       -0.233633         3
        10         9        26        25     9      180.000000       -0.071711         4
        10        11        12        13     9        0.000000       -2.531744         1
        10        11        12        13     9      180.000000        4.872689         2
        10        11        12        13     9        0.000000       -0.696803         3
        10        11        12        13     9      180.000000       -0.176057         4
        10        11        12        14     9        0.000000        5.532904         1
        10        11        12        14     9      180.000000        6.358717         2
        10        11        12        14     9        0.000000       -0.051283         3
        10        11        12        14     9      180.000000       -0.158612         4
        10        23        24        25     9        0.000000        0.066168         1
        10        23        24        25     9      180.000000       18.396385         2
        10        23        24        25     9        0.000000       -2.102024         3
        10        23        24        25     9      180.000000       -0.535985         4
        10        23        24        41     9        0.000000        0.126273         1
        10        23        24        41     9      180.000000       15.018722         2
        10        23        24        41     9        0.000000       -0.647982         3
        10        23        24        41     9      180.000000       -0.080098         4
        11        10         9        26     9        0.000000        0.220828         1
        11        10         9        26     9      180.000000       12.478480         2
        11        10         9        26     9        0.000000       -0.109575         3
        11        10         9        26     9      180.000000       -0.329487         4
        11        10        23        24     9        0.000000        0.334774         1
        11        10        23        24     9      180.000000       18.629022         2
        11        10        23        24     9        0.000000        0.316335         3
        11        10        23        24     9      180.000000       -0.464757         4
        11        10        23        40     9        0.000000        0.246514         1
        11        10        23        40     9      180.000000       14.352632         2
        11        10        23        40     9        0.000000       -0.128549         3
        11        10        23        40     9      180.000000        0.162568         4
        11        12        14        15     9        0.000000        6.364926         1
        11        12        14        15     9      180.000000        5.766823         2
        11        12        14        15     9        0.000000       -0.023160         3
        11        12        14        15     9      180.000000       -0.123542         4
        11        12        14        32     9        0.000000        4.782917         1
        11        12        14        32     9      180.000000        6.982785         2
        11        12        14        32     9        0.000000       -0.564199         3
        11        12        14        32     9      180.000000        0.312932         4
        12        11        10        23     9        0.000000       -0.468535         1
        12        11        10        23     9      180.000000        1.875920         2
        12        11        10        23     9        0.000000       -0.412223         3
        12        11        10        23     9      180.000000        0.469219         4
        12        14        15        16     9        0.000000        0.050801         1
        12        14        15        16     9      180.000000        1.652056         2
        12        14        15        16     9        0.000000       -0.187638         3
        12        14        15        16     9      180.000000        0.312775         4
        12        14        15        22     9        0.000000        0.050801         1
        12        14        15        22     9      180.000000        1.652056         2
        12        14        15        22     9        0.000000       -0.187638         3
        12        14        15        22     9      180.000000        0.312775         4
        13        12        11        31     9        0.000000       -2.204784         1
        13        12        11        31     9      180.000000        5.153815         2
        13        12        11        31     9        0.000000       -0.121163         3
        13        12        11        31     9      180.000000       -0.071652         4
        13        12        14        15     9        0.000000       -3.326496         1
        13        12        14        15     9      180.000000        4.659211         2
        13        12        14        15     9        0.000000       -0.615636         3
        13        12        14        15     9      180.000000       -0.229728         4
        13        12        14        32     9        0.000000       -1.928212         1
        13        12        14        32     9      180.000000        5.896343         2
        13        12        14        32     9        0.000000        0.137628         3
        13        12        14        32     9      180.000000        0.130541         4
        14        12        11        31     9        0.000000        4.448996         1
        14        12        11        31     9      180.000000        6.844592         2
        14        12        11        31     9        0.000000       -0.391997         3
        14        12        11        31     9      180.000000        0.190844         4
        14        15        16        17     9        0.000000        0.296139         1
        14        15        16        17     9      180.000000       16.638270         2
        14        15        16        17     9        0.000000        0.097800         3
        14        15        16        17     9      180.000000       -0.248271         4
        14        15        16        33     9        0.000000       -0.080423         1
        14        15        16        33     9      180.000000       13.134664         2
        14        15        16        33     9        0.000000       -0.285581         3
        14        15        16        33     9      180.000000        0.234511         4
        14        15        22        21     9        0.000000        0.296139         1
        14        15        22        21     9      180.000000       16.638270         2
        14        15        22        21     9        0.000000        0.097800         3
        14        15        22        21     9      180.000000       -0.248271         4
        14        15        22        39     9        0.000000       -0.080423         1
        14        15        22        39     9      180.000000       13.134666         2
        14        15        22        39     9        0.000000       -0.285581         3
        14        15        22        39     9      180.000000        0.234510         4
        15        16        17        18     9        0.000000       -0.063092         1
        15        16        17        18     9      180.000000       18.509486         2
        15        16        17        18     9        0.000000       -1.673515         3
        15        16        17        18     9      180.000000       -0.499952         4
        15        16        17        34     9        0.000000        0.046699         1
        15        16        17        34     9      180.000000       14.467821         2
        15        16        17        34     9        0.000000       -0.572640         3
        15        16        17        34     9      180.000000        0.054480         4
        15        22        21        18     9        0.000000       -0.063092         1
        15        22        21        18     9      180.000000       18.509486         2
        15        22        21        18     9        0.000000       -1.673515         3
        15        22        21        18     9      180.000000       -0.499952         4
        15        22        21        38     9        0.000000        0.046699         1
        15        22        21        38     9      180.000000       14.467821         2
        15        22        21        38     9        0.000000       -0.572641         3
        15        22        21        38     9      180.000000        0.054480         4
        16        15        14        32     9        0.000000        0.020986         1
        16        15        14        32     9      180.000000        1.736251         2
        16        15        14        32     9        0.000000       -0.027645         3
        16        15        14        32     9      180.000000       -0.037844         4
        16        15        22        21     9        0.000000        0.009326         1
        16        15        22        21     9      180.000000       16.171273         2
        16        15        22        21     9        0.000000       -1.234576         3
        16        15        22        21     9      180.000000       -0.171223         4
        16        15        22        39     9        0.000000        0.169199         1
        16        15        22        39     9      180.000000       12.671205         2
        16        15        22        39     9        0.000000       -0.507606         3
        16        15        22        39     9      180.000000        0.121684         4
        16        17        18        19     9        0.000000        0.528051         1
        16        17        18        19     9      180.000000       16.966516         2
        16        17        18        19     9        0.000000        0.323647         3
        16        17        18        19     9      180.000000       -0.283490         4
        16        17        18        21     9        0.000000       -0.074356         1
        16        17        18        21     9      180.000000       15.990468         2
        16        17        18        21     9        0.000000       -1.064576         3
        16        17        18        21     9      180.000000       -0.270229         4
        17        16        15        22     9        0.000000        0.009326         1
        17        16        15        22     9      180.000000       16.171273         2
        17        16        15        22     9        0.000000       -1.234576         3
        17        16        15        22     9      180.000000       -0.171223         4
        17        18        19        20     9        0.000000        0.165047         1
        17        18        19        20     9      180.000000        5.289332         2
        17        18        19        20     9        0.000000       -0.083299         3
        17        18        19        20     9      180.000000        0.695357         4
        17        18        21        22     9        0.000000       -0.074356         1
        17        18        21        22     9      180.000000       15.990468         2
        17        18        21        22     9        0.000000       -1.064576         3
        17        18        21        22     9      180.000000       -0.270229         4
        17        18        21        38     9        0.000000        0.135290         1
        17        18        21        38     9      180.000000       12.548327         2
        17        18        21        38     9        0.000000       -0.515528         3
        17        18        21        38     9      180.000000        0.197960         4
        18        17        16        33     9        0.000000        0.090098         1
        18        17        16        33     9      180.000000       14.936234         2
        18        17        16        33     9        0.000000       -0.398529         3
        18        17        16        33     9      180.000000        0.090569         4
        18        19        20        35     9        0.000000       -0.090081         1
        18        19        20        35     9      180.000000        0.026740         2
        18        19        20        35     9        0.000000        0.704412         3
        18        19        20        35     9      180.000000       -0.026119         4
        18        19        20        36     9        0.000000       -0.090081         1
        18        19        20        36     9      180.000000        0.026740         2
        18        19        20        36     9        0.000000        0.704412         3
        18        19        20        36     9      180.000000       -0.026119         4
        18        19        20        37     9        0.000000       -0.090081         1
        18        19        20        37     9      180.000000        0.026740         2
        18        19        20        37     9        0.000000        0.704412         3
        18        19        20        37     9      180.000000       -0.026119         4
        18        21        22        39     9        0.000000        0.090098         1
        18        21        22        39     9      180.000000       14.936234         2
        18        21        22        39     9        0.000000       -0.398529         3
        18        21        22        39     9      180.000000        0.090569         4
        19        18        17        34     9        0.000000        0.046962         1
        19        18        17        34     9      180.000000       12.817149         2
        19        18        17        34     9        0.000000       -0.108141         3
        19        18        17        34     9      180.000000        0.272825         4
        19        18        21        22     9        0.000000        0.528051         1
        19        18        21        22     9      180.000000       16.966516         2
        19        18        21        22     9        0.000000        0.323647         3
        19        18        21        22     9      180.000000       -0.283490         4
        19        18        21        38     9        0.000000        0.046962         1
        19        18        21        38     9      180.000000       12.817147         2
        19        18        21        38     9        0.000000       -0.108141         3
        19        18        21        38     9      180.000000        0.272824         4
        20        19        18        21     9        0.000000        0.165047         1
        20        19        18        21     9      180.000000        5.289332         2
        20        19        18        21     9        0.000000       -0.083299         3
        20        19        18        21     9      180.000000        0.695357         4
        21        18        17        34     9        0.000000        0.135289         1
        21        18        17        34     9      180.000000       12.548327         2
        21        18        17        34     9        0.000000       -0.515528         3
        21        18        17        34     9      180.000000        0.197960         4
        22        15        14        32     9        0.000000        0.020986         1
        22        15        14        32     9      180.000000        1.736251         2
        22        15        14        32     9        0.000000       -0.027645         3
        22        15        14        32     9      180.000000       -0.037844         4
        22        15        16        33     9        0.000000        0.169200         1
        22        15        16        33     9      180.000000       12.671208         2
        22        15        16        33     9        0.000000       -0.507606         3
        22        15        16        33     9      180.000000        0.121684         4
        23        10         9        26     9        0.000000        0.040752         1
        23        10         9        26     9      180.000000       10.972651         2
        23        10         9        26     9        0.000000       -0.517360         3
        23        10         9        26     9      180.000000       -0.118747         4
        23        10        11        31     9        0.000000        0.403978         1
        23        10        11        31     9      180.000000        2.149404         2
        23        10        11        31     9        0.000000        0.432386         3
        23        10        11        31     9      180.000000       -0.165766         4
        23        24        25        26     9        0.000000        0.100604         1
        23        24        25        26     9      180.000000       20.168022         2
        23        24        25        26     9        0.000000       -1.195335         3
        23        24        25        26     9      180.000000       -0.567771         4
        23        24        25        42     9        0.000000        0.082489         1
        23        24        25        42     9      180.000000       14.362336         2
        23        24        25        42     9        0.000000       -0.749614         3
        23        24        25        42     9      180.000000        0.097547         4
        25        24        23        40     9        0.000000        0.167049         1
        25        24        23        40     9      180.000000       14.479790         2
        25        24        23        40     9        0.000000       -0.751910         3
        25        24        23        40     9      180.000000        0.148426         4
        26        25        24        41     9        0.000000        0.174483         1
        26        25        24        41     9      180.000000       15.688095         2
        26        25        24        41     9        0.000000       -0.259874         3
        26        25        24        41     9      180.000000       -0.156477         4
        27         7         6        30     9        0.000000        0.056010         1
        27         7         6        30     9      180.000000       12.890448         2
        27         7         6        30     9        0.000000       -0.522917         3
        27         7         6        30     9      180.000000        0.185411         4
        27        28        29        45     9        0.000000        0.117525         1
        27        28        29        45     9      180.000000       14.934186         2
        27        28        29        45     9        0.000000       -0.834549         3
        27        28        29        45     9      180.000000        0.101174         4
        29         5         6        30     9        0.000000        0.048363         1
        29         5         6        30     9      180.000000       14.235145         2
        29         5         6        30     9        0.000000       -0.596556         3
        29         5         6        30     9      180.000000        0.051989         4
        29        28        27        43     9        0.000000        0.108182         1
        29        28        27        43     9      180.000000       14.195930         2
        29        28        27        43     9        0.000000       -0.624027         3
        29        28        27        43     9      180.000000        0.118249         4
        33        16        17        34     9        0.000000       -0.144098         1
        33        16        17        34     9      180.000000       12.332727         2
        33        16        17        34     9        0.000000       -0.659079         3
        33        16        17        34     9      180.000000        0.287167         4
        38        21        22        39     9        0.000000       -0.144098         1
        38        21        22        39     9      180.000000       12.332727         2
        38        21        22        39     9        0.000000       -0.659079         3
        38        21        22        39     9      180.000000        0.287167         4
        40        23        24        41     9        0.000000       -0.114528         1
        40        23        24        41     9      180.000000       11.840300         2
        40        23        24        41     9        0.000000       -0.671560         3
        40        23        24        41     9      180.000000        0.313357         4
        41        24        25        42     9        0.000000       -0.153197         1
        41        24        25        42     9      180.000000       12.054830         2
        41        24        25        42     9        0.000000       -0.693173         3
        41        24        25        42     9      180.000000        0.290660         4
        43        27        28        44     9        0.000000       -0.117711         1
        43        27        28        44     9      180.000000       11.992923         2
        43        27        28        44     9        0.000000       -0.643509         3
        43        27        28        44     9      180.000000        0.217301         4
        44        28        29        45     9        0.000000       -0.153393         1
        44        28        29        45     9      180.000000       11.890618         2
        44        28        29        45     9        0.000000       -0.780758         3
        44        28        29        45     9      180.000000        0.311358         4

[ dihedrals ] ; impropers
;       ai        aj        ak        al funct           phase               k        pn
         6         5         7        30     4      180.000000        0.020953         2
         6         7        30         5     4      180.000000        0.020953         2
         6        30         5         7     4      180.000000        0.020953         2
        12        11        13        14     4      180.000000       20.276479         2
        12        13        14        11     4      180.000000       20.276479         2
        12        14        11        13     4      180.000000       20.276479         2
        18        17        19        21     4      180.000000        0.135826         2
        18        19        21        17     4      180.000000        0.135826         2
        18        21        17        19     4      180.000000        0.135826         2
        25        24        26        42     4      180.000000        0.546115         2
        25        26        42        24     4      180.000000        0.546115         2
        25        42        24        26     4      180.000000        0.546115         2
        27         7        28        43     4      180.000000        0.552125         2
        27        28        43         7     4      180.000000        0.552125         2
        27        43         7        28     4      180.000000        0.552125         2
        28        27        29        44     4      180.000000        1.974817         2
        28        29        44        27     4      180.000000        1.974817         2
        28        44        27        29     4      180.000000        1.974817         2

[ pairs ]
;       ai        aj funct
         1         6     1
         1        29     1
         2         7     1
         2        28     1
         2        30     1
         2        45     1
         3         6     1
         3        29     1
         4         6     1
         4        29     1
         5         8     1
         5        27     1
         5        44     1
         6         9     1
         6        28     1
         6        43     1
         6        45     1
         7        10     1
         7        26     1
         7        29     1
         7        44     1
         8        11     1
         8        23     1
         8        25     1
         8        28     1
         8        30     1
         8        43     1
         9        12     1
         9        24     1
         9        27     1
         9        31     1
         9        40     1
         9        42     1
        10        13     1
        10        14     1
        10        25     1
        10        41     1
        11        15     1
        11        24     1
        11        26     1
        11        32     1
        11        40     1
        12        16     1
        12        22     1
        12        23     1
        13        15     1
        13        31     1
        13        32     1
        14        17     1
        14        21     1
        14        31     1
        14        33     1
        14        39     1
        15        18     1
        15        34     1
        15        38     1
        16        19     1
        16        21     1
        16        32     1
        16        39     1
        17        20     1
        17        22     1
        17        38     1
        18        33     1
        18        35     1
        18        36     1
        18        37     1
        18        39     1
        19        22     1
        19        34     1
        19        38     1
        20        21     1
        21        34     1
        22        32     1
        22        33     1
        23        26     1
        23        31     1
        23        42     1
        25        40     1
        26        41     1
        27        30     1
        27        45     1
        29        30     1
        29        43     1
        33        34     1
        38        39     1
        40        41     1
        41        42     1
        43        44     1
        44        45     1
