; ITP file created by ByteFF-ML, 2025-12-06 04:48:54.839994

[ atomtypes ]
;name           bonded.type        at.num        mass        charge   ptype           sigma         epsilon
 f0bf                                   9      0.0000       0.00000       A     3.03451e-01     3.47961e-01
 c1bf                                   6      0.0000       0.00000       A     3.39851e-01     4.48847e-01
 f2bf                                   9      0.0000       0.00000       A     3.03451e-01     3.47961e-01
 f3bf                                   9      0.0000       0.00000       A     3.03451e-01     3.47961e-01
 c4bf                                   6      0.0000       0.00000       A     3.31621e-01     4.13384e-01
 c5bf                                   6      0.0000       0.00000       A     3.31475e-01     4.13159e-01
 c6bf                                   6      0.0000       0.00000       A     3.31584e-01     4.14956e-01
 o7bf                                   8      0.0000       0.00000       A     3.15756e-01     3.08030e-01
 c8bf                                   6      0.0000       0.00000       A     3.31241e-01     4.10680e-01
 c9bf                                   6      0.0000       0.00000       A     3.31219e-01     4.13182e-01
 n10bf                                  7      0.0000       0.00000       A     3.26853e-01     4.96156e-01
 c11bf                                  6      0.0000       0.00000       A     3.31259e-01     4.14898e-01
 o12bf                                  8      0.0000       0.00000       A     3.04781e-01     6.14498e-01
 n13bf                                  7      0.0000       0.00000       A     3.27155e-01     4.89269e-01
 c14bf                                  6      0.0000       0.00000       A     3.31355e-01     4.11720e-01
 c15bf                                  6      0.0000       0.00000       A     3.31607e-01     4.13144e-01
 c16bf                                  6      0.0000       0.00000       A     3.31517e-01     4.12822e-01
 c17bf                                  6      0.0000       0.00000       A     3.31457e-01     4.13237e-01
 c18bf                                  6      0.0000       0.00000       A     3.31542e-01     4.11819e-01
 o19bf                                  8      0.0000       0.00000       A     3.04727e-01     6.10436e-01
 o20bf                                  8      0.0000       0.00000       A     3.15445e-01     3.03194e-01
 c21bf                                  6      0.0000       0.00000       A     3.39724e-01     4.49702e-01
 c22bf                                  6      0.0000       0.00000       A     3.31517e-01     4.12822e-01
 c23bf                                  6      0.0000       0.00000       A     3.31607e-01     4.13144e-01
 c24bf                                  6      0.0000       0.00000       A     3.31584e-01     4.13224e-01
 c25bf                                  6      0.0000       0.00000       A     3.31481e-01     4.12981e-01
 c26bf                                  6      0.0000       0.00000       A     3.31514e-01     4.12560e-01
 n27bf                                  7      0.0000       0.00000       A     3.38247e-01     3.91955e-01
 c28bf                                  6      0.0000       0.00000       A     3.31510e-01     4.13886e-01
 c29bf                                  6      0.0000       0.00000       A     3.31532e-01     4.13738e-01
 c30bf                                  6      0.0000       0.00000       A     3.31502e-01     4.12745e-01
 h31bf                                  1      0.0000       0.00000       A     2.62520e-01     6.72073e-02
 h32bf                                  1      0.0000       0.00000       A     1.10974e-01     4.12520e-02
 h33bf                                  1      0.0000       0.00000       A     1.10460e-01     4.18649e-02
 h34bf                                  1      0.0000       0.00000       A     2.62602e-01     6.76909e-02
 h35bf                                  1      0.0000       0.00000       A     2.62623e-01     6.73605e-02
 h36bf                                  1      0.0000       0.00000       A     2.42003e-01     8.72443e-02
 h37bf                                  1      0.0000       0.00000       A     2.42003e-01     8.72443e-02
 h38bf                                  1      0.0000       0.00000       A     2.42003e-01     8.72443e-02
 h39bf                                  1      0.0000       0.00000       A     2.62623e-01     6.73605e-02
 h40bf                                  1      0.0000       0.00000       A     2.62602e-01     6.76909e-02
 h41bf                                  1      0.0000       0.00000       A     2.62621e-01     6.73062e-02
 h42bf                                  1      0.0000       0.00000       A     2.62506e-01     6.74387e-02
 h43bf                                  1      0.0000       0.00000       A     2.53538e-01     6.71594e-02
 h44bf                                  1      0.0000       0.00000       A     2.62525e-01     6.72392e-02
 h45bf                                  1      0.0000       0.00000       A     2.62527e-01     6.72711e-02
 h46bf                                  1      0.0000       0.00000       A     2.62655e-01     6.75361e-02

[ moleculetype ]
;name             nrexcl
 6o                    3

[ atoms ]
;       nr            type      resi   res      atom      cgnr      charge          mass ; qtot
         1            f0bf         1   UNL        f0         1    -0.10409       18.9980 ; qtot   -0.104
         2            c1bf         1   UNL        c1         2     0.33660       12.0110 ; qtot    0.233
         3            f2bf         1   UNL        f2         3    -0.10409       18.9980 ; qtot    0.128
         4            f3bf         1   UNL        f3         4    -0.10409       18.9980 ; qtot    0.024
         5            c4bf         1   UNL        c4         5    -0.16367       12.0110 ; qtot   -0.139
         6            c5bf         1   UNL        c5         6    -0.06086       12.0110 ; qtot   -0.200
         7            c6bf         1   UNL        c6         7     0.11228       12.0110 ; qtot   -0.088
         8            o7bf         1   UNL        o7         8    -0.38334       15.9990 ; qtot   -0.471
         9            c8bf         1   UNL        c8         9     0.51952       12.0110 ; qtot    0.048
        10            c9bf         1   UNL        c9        10    -0.06788       12.0110 ; qtot   -0.020
        11           n10bf         1   UNL       n10        11    -0.15042       14.0070 ; qtot   -0.170
        12           c11bf         1   UNL       c11        12     0.65911       12.0110 ; qtot    0.489
        13           o12bf         1   UNL       o12        13    -0.59569       15.9990 ; qtot   -0.107
        14           n13bf         1   UNL       n13        14    -0.16182       14.0070 ; qtot   -0.268
        15           c14bf         1   UNL       c14        15     0.02420       12.0110 ; qtot   -0.244
        16           c15bf         1   UNL       c15        16    -0.17532       12.0110 ; qtot   -0.420
        17           c16bf         1   UNL       c16        17    -0.02142       12.0110 ; qtot   -0.441
        18           c17bf         1   UNL       c17        18    -0.18577       12.0110 ; qtot   -0.627
        19           c18bf         1   UNL       c18        19     0.60426       12.0110 ; qtot   -0.022
        20           o19bf         1   UNL       o19        20    -0.48370       15.9990 ; qtot   -0.506
        21           o20bf         1   UNL       o20        21    -0.44612       15.9990 ; qtot   -0.952
        22           c21bf         1   UNL       c21        22     0.14928       12.0110 ; qtot   -0.803
        23           c22bf         1   UNL       c22        23    -0.02143       12.0110 ; qtot   -0.824
        24           c23bf         1   UNL       c23        24    -0.17532       12.0110 ; qtot   -1.000
        25           c24bf         1   UNL       c24        25    -0.08259       12.0110 ; qtot   -1.082
        26           c25bf         1   UNL       c25        26    -0.15962       12.0110 ; qtot   -1.242
        27           c26bf         1   UNL       c26        27     0.34178       12.0110 ; qtot   -0.900
        28           n27bf         1   UNL       n27        28    -0.70598       14.0070 ; qtot   -1.606
        29           c28bf         1   UNL       c28        29    -0.11065       12.0110 ; qtot   -1.717
        30           c29bf         1   UNL       c29        30    -0.09237       12.0110 ; qtot   -1.809
        31           c30bf         1   UNL       c30        31    -0.07766       12.0110 ; qtot   -1.887
        32           h31bf         1   UNL       h31        32     0.14610        1.0080 ; qtot   -1.741
        33           h32bf         1   UNL       h32        33     0.17579        1.0080 ; qtot   -1.565
        34           h33bf         1   UNL       h33        34     0.15557        1.0080 ; qtot   -1.409
        35           h34bf         1   UNL       h34        35     0.13752        1.0080 ; qtot   -1.272
        36           h35bf         1   UNL       h35        36     0.13601        1.0080 ; qtot   -1.136
        37           h36bf         1   UNL       h36        37     0.05393        1.0080 ; qtot   -1.082
        38           h37bf         1   UNL       h37        38     0.05393        1.0080 ; qtot   -1.028
        39           h38bf         1   UNL       h38        39     0.05393        1.0080 ; qtot   -0.974
        40           h39bf         1   UNL       h39        40     0.13601        1.0080 ; qtot   -0.838
        41           h40bf         1   UNL       h40        41     0.13752        1.0080 ; qtot   -0.701
        42           h41bf         1   UNL       h41        42     0.15134        1.0080 ; qtot   -0.549
        43           h42bf         1   UNL       h42        43     0.12997        1.0080 ; qtot   -0.419
        44           h43bf         1   UNL       h43        44     0.02910        1.0080 ; qtot   -0.390
        45           h44bf         1   UNL       h44        45     0.13259        1.0080 ; qtot   -0.258
        46           h45bf         1   UNL       h45        46     0.12498        1.0080 ; qtot   -0.133
        47           h46bf         1   UNL       h46        47     0.13258        1.0080 ; qtot   -0.000

[ bonds ]
;       ai        aj funct               r               k
         1         2     1        0.135848   221750.237939
         2         3     1        0.135848   221750.237939
         2         4     1        0.135848   221750.237939
         2         5     1        0.150642   194411.357812
         5         6     1        0.139683   306929.649316
         5        31     1        0.139893   298842.506445
         6         7     1        0.139458   302119.734766
         6        32     1        0.108435   325508.739111
         7         8     1        0.139076   226098.952295
         7        29     1        0.139507   300349.451270
         8         9     1        0.137972   227076.921436
         9        10     1        0.141455   241784.559912
         9        28     1        0.131650   340496.647363
        10        11     1        0.140423   262254.059766
        10        25     1        0.139669   302796.953369
        11        12     1        0.138886   239709.822998
        11        33     1        0.101419   408858.186768
        12        13     1        0.122725   593985.707227
        12        14     1        0.138361   251727.561133
        14        15     1        0.140764   251513.841064
        14        34     1        0.101091   419225.921191
        15        16     1        0.140782   279641.894482
        15        24     1        0.140782   279641.894482
        16        17     1        0.138976   335027.517871
        16        35     1        0.108363   326104.341113
        17        18     1        0.140294   296507.750684
        17        36     1        0.108453   324367.102637
        18        19     1        0.148474   192090.443164
        18        23     1        0.140294   296507.750684
        19        20     1        0.122012   642825.582129
        19        21     1        0.135639   235167.869336
        21        22     1        0.144281   182375.999072
        22        37     1        0.109098   309415.737988
        22        38     1        0.109098   309415.737988
        22        39     1        0.109098   309415.737988
        23        24     1        0.138976   335027.517871
        23        40     1        0.108453   324367.102637
        24        41     1        0.108363   326104.341113
        25        26     1        0.140003   313082.713672
        25        42     1        0.108193   330892.421436
        26        27     1        0.139139   305686.170850
        26        43     1        0.108503   324361.765381
        27        28     1        0.134429   311714.895020
        27        44     1        0.108728   317581.203174
        29        30     1        0.139703   315002.338184
        29        45     1        0.108471   324023.654053
        30        31     1        0.139776   311431.637402
        30        46     1        0.108575   321535.088281
        31        47     1        0.108475   324244.422363

[ angles ]
;       ai        aj        ak funct           theta             cth
         1         2         3     1      106.673416      701.102313
         1         2         4     1      106.673416      701.102313
         1         2         5     1      111.963486      590.221141
         2         5         6     1      119.258873      488.824389
         2         5        31     1      119.563637      526.853294
         3         2         4     1      106.673416      701.102313
         3         2         5     1      111.963486      590.221141
         4         2         5     1      111.963486      590.221141
         5         6         7     1      118.906960      675.205641
         5         6        32     1      121.073891      390.436642
         5        31        30     1      119.033890      671.258051
         5        31        47     1      120.217079      418.336221
         6         5        31     1      120.920876      664.961110
         6         7         8     1      119.127602      475.579886
         6         7        29     1      121.136398      642.560405
         7         6        32     1      119.610718      415.840160
         7         8         9     1      118.996475      468.152929
         7        29        30     1      119.077614      700.722384
         7        29        45     1      119.664551      413.801469
         8         7        29     1      119.560463      505.160382
         8         9        10     1      116.891190      365.084836
         8         9        28     1      119.251526      575.307278
         9        10        11     1      117.626175      431.158851
         9        10        25     1      116.875977      643.692976
         9        28        27     1      118.202881      715.701240
        10         9        28     1      124.298561      669.115487
        10        11        12     1      126.276352      452.689443
        10        11        33     1      114.048378      434.130349
        10        25        26     1      118.717087      830.537407
        10        25        42     1      119.480087      442.212844
        11        10        25     1      125.502136      569.232191
        11        12        13     1      123.886490      550.707764
        11        12        14     1      112.608353      544.959169
        12        11        33     1      117.628128      436.697435
        12        14        15     1      128.496002      465.110629
        12        14        34     1      116.246033      460.361876
        13        12        14     1      124.614906      546.971174
        14        15        16     1      120.644852      599.318162
        14        15        24     1      120.644852      599.318162
        15        14        34     1      114.775589      454.964097
        15        16        17     1      119.876297      753.947785
        15        16        35     1      119.721329      455.965024
        15        24        23     1      119.876297      753.947785
        15        24        41     1      119.721329      455.965024
        16        15        24     1      119.282028      491.569437
        16        17        18     1      120.916969      628.635977
        16        17        36     1      119.834633      409.813466
        17        16        35     1      120.272118      407.994075
        17        18        19     1      120.666504      538.117266
        17        18        23     1      118.752640      610.633974
        18        17        36     1      119.246437      423.274492
        18        19        20     1      124.579674      511.400343
        18        19        21     1      112.549362      479.205549
        18        23        24     1      120.916969      628.635977
        18        23        40     1      119.246437      423.274492
        19        18        23     1      120.666504      538.117266
        19        21        22     1      115.143631      555.817165
        20        19        21     1      122.858093      579.491278
        21        22        37     1      108.710037      474.366778
        21        22        38     1      108.710037      474.366778
        21        22        39     1      108.710037      474.366778
        23        24        41     1      120.272118      407.994075
        24        23        40     1      119.834633      409.813466
        25        26        27     1      119.055466      724.682960
        25        26        43     1      120.423500      439.039347
        26        25        42     1      121.786964      385.096928
        26        27        28     1      122.499290      661.638094
        26        27        44     1      121.265182      408.189051
        27        26        43     1      120.600418      442.820723
        28        27        44     1      116.190018      392.705071
        29        30        31     1      120.545692      713.667209
        29        30        46     1      119.583778      428.611077
        30        29        45     1      121.394608      418.058218
        30        31        47     1      120.676865      426.254289
        31        30        46     1      119.880020      433.195531
        37        22        38     1      110.334000      330.800756
        37        22        39     1      110.334000      330.800756
        38        22        39     1      110.334000      330.800756

[ dihedrals ] ; propers for gromacs 4.5 or higher, use funct 9
;       ai        aj        ak        al funct           phase               k        pn
         1         2         5         6     9        0.000000       -0.056845         1
         1         2         5         6     9      180.000000        0.147564         2
         1         2         5         6     9        0.000000        0.094344         3
         1         2         5         6     9      180.000000        0.023205         4
         1         2         5        31     9        0.000000       -0.024666         1
         1         2         5        31     9      180.000000        0.065951         2
         1         2         5        31     9        0.000000        0.107954         3
         1         2         5        31     9      180.000000        0.013499         4
         2         5         6         7     9        0.000000        0.215367         1
         2         5         6         7     9      180.000000       15.224711         2
         2         5         6         7     9        0.000000        0.160889         3
         2         5         6         7     9      180.000000       -0.294407         4
         2         5         6        32     9        0.000000        0.062054         1
         2         5         6        32     9      180.000000       12.135615         2
         2         5         6        32     9        0.000000       -0.273581         3
         2         5         6        32     9      180.000000        0.098556         4
         2         5        31        30     9        0.000000        0.052564         1
         2         5        31        30     9      180.000000       15.093531         2
         2         5        31        30     9        0.000000       -0.022061         3
         2         5        31        30     9      180.000000       -0.279823         4
         2         5        31        47     9        0.000000        0.021646         1
         2         5        31        47     9      180.000000       12.001621         2
         2         5        31        47     9        0.000000       -0.324659         3
         2         5        31        47     9      180.000000        0.133723         4
         3         2         5         6     9        0.000000       -0.056845         1
         3         2         5         6     9      180.000000        0.147564         2
         3         2         5         6     9        0.000000        0.094344         3
         3         2         5         6     9      180.000000        0.023205         4
         3         2         5        31     9        0.000000       -0.024666         1
         3         2         5        31     9      180.000000        0.065951         2
         3         2         5        31     9        0.000000        0.107954         3
         3         2         5        31     9      180.000000        0.013499         4
         4         2         5         6     9        0.000000       -0.056845         1
         4         2         5         6     9      180.000000        0.147564         2
         4         2         5         6     9        0.000000        0.094344         3
         4         2         5         6     9      180.000000        0.023205         4
         4         2         5        31     9        0.000000       -0.024666         1
         4         2         5        31     9      180.000000        0.065951         2
         4         2         5        31     9        0.000000        0.107954         3
         4         2         5        31     9      180.000000        0.013499         4
         5         6         7         8     9        0.000000        0.461178         1
         5         6         7         8     9      180.000000       18.685890         2
         5         6         7         8     9        0.000000        0.578921         3
         5         6         7         8     9      180.000000       -0.438095         4
         5         6         7        29     9        0.000000        0.131992         1
         5         6         7        29     9      180.000000       17.207648         2
         5         6         7        29     9        0.000000       -0.953156         3
         5         6         7        29     9      180.000000       -0.284457         4
         5        31        30        29     9        0.000000        0.076388         1
         5        31        30        29     9      180.000000       18.872772         2
         5        31        30        29     9        0.000000       -1.670059         3
         5        31        30        29     9      180.000000       -0.377128         4
         5        31        30        46     9        0.000000        0.075182         1
         5        31        30        46     9      180.000000       14.906743         2
         5        31        30        46     9        0.000000       -0.691169         3
         5        31        30        46     9      180.000000        0.085825         4
         6         5        31        30     9        0.000000       -0.097626         1
         6         5        31        30     9      180.000000       18.802134         2
         6         5        31        30     9        0.000000       -1.614990         3
         6         5        31        30     9      180.000000       -0.392323         4
         6         5        31        47     9        0.000000        0.086682         1
         6         5        31        47     9      180.000000       14.632806         2
         6         5        31        47     9        0.000000       -0.721878         3
         6         5        31        47     9      180.000000        0.027501         4
         6         7         8         9     9        0.000000       -0.096951         1
         6         7         8         9     9      180.000000        3.845560         2
         6         7         8         9     9        0.000000       -0.637443         3
         6         7         8         9     9      180.000000        0.505060         4
         6         7        29        30     9        0.000000        0.009736         1
         6         7        29        30     9      180.000000       16.835914         2
         6         7        29        30     9        0.000000       -0.933731         3
         6         7        29        30     9      180.000000       -0.219708         4
         6         7        29        45     9        0.000000        0.042221         1
         6         7        29        45     9      180.000000       13.111511         2
         6         7        29        45     9        0.000000       -0.535863         3
         6         7        29        45     9      180.000000        0.136008         4
         7         6         5        31     9        0.000000       -0.080829         1
         7         6         5        31     9      180.000000       18.431429         2
         7         6         5        31     9        0.000000       -1.585221         3
         7         6         5        31     9      180.000000       -0.412846         4
         7         8         9        10     9        0.000000        2.791597         1
         7         8         9        10     9      180.000000        2.854338         2
         7         8         9        10     9        0.000000        0.008276         3
         7         8         9        10     9      180.000000       -0.081408         4
         7         8         9        28     9        0.000000       -1.163770         1
         7         8         9        28     9      180.000000        4.059284         2
         7         8         9        28     9        0.000000       -0.809870         3
         7         8         9        28     9      180.000000       -0.060210         4
         7        29        30        31     9        0.000000       -0.065058         1
         7        29        30        31     9      180.000000       18.729965         2
         7        29        30        31     9        0.000000       -1.425256         3
         7        29        30        31     9      180.000000       -0.471228         4
         7        29        30        46     9        0.000000        0.047456         1
         7        29        30        46     9      180.000000       14.866803         2
         7        29        30        46     9        0.000000       -0.511681         3
         7        29        30        46     9      180.000000        0.022194         4
         8         7         6        32     9        0.000000        0.241204         1
         8         7         6        32     9      180.000000       13.972061         2
         8         7         6        32     9        0.000000        0.209932         3
         8         7         6        32     9      180.000000        0.287732         4
         8         7        29        30     9        0.000000        0.691592         1
         8         7        29        30     9      180.000000       18.726699         2
         8         7        29        30     9        0.000000        0.679696         3
         8         7        29        30     9      180.000000       -0.385291         4
         8         7        29        45     9        0.000000        0.168960         1
         8         7        29        45     9      180.000000       14.166477         2
         8         7        29        45     9        0.000000        0.177158         3
         8         7        29        45     9      180.000000        0.249999         4
         8         9        10        11     9        0.000000        0.079118         1
         8         9        10        11     9      180.000000       15.943068         2
         8         9        10        11     9        0.000000        0.335160         3
         8         9        10        11     9      180.000000       -0.375931         4
         8         9        10        25     9        0.000000        0.367062         1
         8         9        10        25     9      180.000000       12.897585         2
         8         9        10        25     9        0.000000        0.264182         3
         8         9        10        25     9      180.000000       -0.062919         4
         8         9        28        27     9        0.000000        0.951283         1
         8         9        28        27     9      180.000000       29.893619         2
         8         9        28        27     9        0.000000        1.349691         3
         8         9        28        27     9      180.000000       -0.721816         4
         9         8         7        29     9        0.000000        0.084530         1
         9         8         7        29     9      180.000000        3.730263         2
         9         8         7        29     9        0.000000       -0.527888         3
         9         8         7        29     9      180.000000        0.458010         4
         9        10        11        12     9        0.000000       -1.891644         1
         9        10        11        12     9      180.000000        1.922334         2
         9        10        11        12     9        0.000000        0.305757         3
         9        10        11        12     9      180.000000       -0.046941         4
         9        10        11        33     9        0.000000        1.738829         1
         9        10        11        33     9      180.000000        1.587693         2
         9        10        11        33     9        0.000000        0.489558         3
         9        10        11        33     9      180.000000       -0.381082         4
         9        10        25        26     9        0.000000        0.030817         1
         9        10        25        26     9      180.000000       17.824404         2
         9        10        25        26     9        0.000000       -1.212316         3
         9        10        25        26     9      180.000000       -0.515062         4
         9        10        25        42     9        0.000000        0.112899         1
         9        10        25        42     9      180.000000       13.626117         2
         9        10        25        42     9        0.000000       -0.408094         3
         9        10        25        42     9      180.000000        0.036469         4
         9        28        27        26     9        0.000000        0.056121         1
         9        28        27        26     9      180.000000       22.227408         2
         9        28        27        26     9        0.000000       -1.099500         3
         9        28        27        26     9      180.000000       -0.344180         4
         9        28        27        44     9        0.000000        1.036486         1
         9        28        27        44     9      180.000000       19.807955         2
         9        28        27        44     9        0.000000        0.288466         3
         9        28        27        44     9      180.000000       -0.599441         4
        10         9        28        27     9        0.000000        0.158669         1
        10         9        28        27     9      180.000000       23.115477         2
        10         9        28        27     9        0.000000       -0.233633         3
        10         9        28        27     9      180.000000       -0.071711         4
        10        11        12        13     9        0.000000       -2.531744         1
        10        11        12        13     9      180.000000        4.872689         2
        10        11        12        13     9        0.000000       -0.696803         3
        10        11        12        13     9      180.000000       -0.176057         4
        10        11        12        14     9        0.000000        5.532904         1
        10        11        12        14     9      180.000000        6.358717         2
        10        11        12        14     9        0.000000       -0.051283         3
        10        11        12        14     9      180.000000       -0.158612         4
        10        25        26        27     9        0.000000        0.066168         1
        10        25        26        27     9      180.000000       18.396385         2
        10        25        26        27     9        0.000000       -2.102023         3
        10        25        26        27     9      180.000000       -0.535985         4
        10        25        26        43     9        0.000000        0.126273         1
        10        25        26        43     9      180.000000       15.018723         2
        10        25        26        43     9        0.000000       -0.647982         3
        10        25        26        43     9      180.000000       -0.080098         4
        11        10         9        28     9        0.000000        0.220828         1
        11        10         9        28     9      180.000000       12.478480         2
        11        10         9        28     9        0.000000       -0.109575         3
        11        10         9        28     9      180.000000       -0.329487         4
        11        10        25        26     9        0.000000        0.334774         1
        11        10        25        26     9      180.000000       18.629022         2
        11        10        25        26     9        0.000000        0.316335         3
        11        10        25        26     9      180.000000       -0.464757         4
        11        10        25        42     9        0.000000        0.246514         1
        11        10        25        42     9      180.000000       14.352632         2
        11        10        25        42     9        0.000000       -0.128549         3
        11        10        25        42     9      180.000000        0.162568         4
        11        12        14        15     9        0.000000        5.698287         1
        11        12        14        15     9      180.000000        5.436713         2
        11        12        14        15     9        0.000000       -0.091449         3
        11        12        14        15     9      180.000000       -0.054817         4
        11        12        14        34     9        0.000000        4.782917         1
        11        12        14        34     9      180.000000        6.982785         2
        11        12        14        34     9        0.000000       -0.564199         3
        11        12        14        34     9      180.000000        0.312932         4
        12        11        10        25     9        0.000000       -0.468535         1
        12        11        10        25     9      180.000000        1.875920         2
        12        11        10        25     9        0.000000       -0.412224         3
        12        11        10        25     9      180.000000        0.469219         4
        12        14        15        16     9        0.000000       -0.049680         1
        12        14        15        16     9      180.000000        2.399676         2
        12        14        15        16     9        0.000000       -0.142848         3
        12        14        15        16     9      180.000000        0.286561         4
        12        14        15        24     9        0.000000       -0.049680         1
        12        14        15        24     9      180.000000        2.399676         2
        12        14        15        24     9        0.000000       -0.142848         3
        12        14        15        24     9      180.000000        0.286561         4
        13        12        11        33     9        0.000000       -2.204784         1
        13        12        11        33     9      180.000000        5.153815         2
        13        12        11        33     9        0.000000       -0.121163         3
        13        12        11        33     9      180.000000       -0.071652         4
        13        12        14        15     9        0.000000       -3.194437         1
        13        12        14        15     9      180.000000        4.144993         2
        13        12        14        15     9        0.000000       -0.674159         3
        13        12        14        15     9      180.000000       -0.193418         4
        13        12        14        34     9        0.000000       -1.928212         1
        13        12        14        34     9      180.000000        5.896343         2
        13        12        14        34     9        0.000000        0.137628         3
        13        12        14        34     9      180.000000        0.130541         4
        14        12        11        33     9        0.000000        4.448996         1
        14        12        11        33     9      180.000000        6.844592         2
        14        12        11        33     9        0.000000       -0.391997         3
        14        12        11        33     9      180.000000        0.190844         4
        14        15        16        17     9        0.000000        0.445009         1
        14        15        16        17     9      180.000000       16.604101         2
        14        15        16        17     9        0.000000        0.287476         3
        14        15        16        17     9      180.000000       -0.348400         4
        14        15        16        35     9        0.000000       -0.040715         1
        14        15        16        35     9      180.000000       13.535514         2
        14        15        16        35     9        0.000000       -0.096569         3
        14        15        16        35     9      180.000000        0.244071         4
        14        15        24        23     9        0.000000        0.445009         1
        14        15        24        23     9      180.000000       16.604101         2
        14        15        24        23     9        0.000000        0.287476         3
        14        15        24        23     9      180.000000       -0.348400         4
        14        15        24        41     9        0.000000       -0.040716         1
        14        15        24        41     9      180.000000       13.535517         2
        14        15        24        41     9        0.000000       -0.096568         3
        14        15        24        41     9      180.000000        0.244071         4
        15        16        17        18     9        0.000000       -0.219586         1
        15        16        17        18     9      180.000000       18.761847         2
        15        16        17        18     9        0.000000       -1.529815         3
        15        16        17        18     9      180.000000       -0.511022         4
        15        16        17        36     9        0.000000       -0.041493         1
        15        16        17        36     9      180.000000       14.871216         2
        15        16        17        36     9        0.000000       -0.621371         3
        15        16        17        36     9      180.000000        0.023417         4
        15        24        23        18     9        0.000000       -0.219586         1
        15        24        23        18     9      180.000000       18.761847         2
        15        24        23        18     9        0.000000       -1.529815         3
        15        24        23        18     9      180.000000       -0.511022         4
        15        24        23        40     9        0.000000       -0.041493         1
        15        24        23        40     9      180.000000       14.871214         2
        15        24        23        40     9        0.000000       -0.621370         3
        15        24        23        40     9      180.000000        0.023418         4
        16        15        14        34     9        0.000000        0.030016         1
        16        15        14        34     9      180.000000        3.303920         2
        16        15        14        34     9        0.000000       -0.054570         3
        16        15        14        34     9      180.000000       -0.206248         4
        16        15        24        23     9        0.000000        0.023507         1
        16        15        24        23     9      180.000000       15.652825         2
        16        15        24        23     9        0.000000       -0.811400         3
        16        15        24        23     9      180.000000       -0.177904         4
        16        15        24        41     9        0.000000        0.148961         1
        16        15        24        41     9      180.000000       12.721967         2
        16        15        24        41     9        0.000000       -0.410350         3
        16        15        24        41     9      180.000000        0.124864         4
        16        17        18        19     9        0.000000        0.019374         1
        16        17        18        19     9      180.000000       13.297361         2
        16        17        18        19     9        0.000000       -0.162482         3
        16        17        18        19     9      180.000000       -0.207026         4
        16        17        18        23     9        0.000000        0.004468         1
        16        17        18        23     9      180.000000       17.290909         2
        16        17        18        23     9        0.000000       -1.412084         3
        16        17        18        23     9      180.000000       -0.281374         4
        17        16        15        24     9        0.000000        0.023507         1
        17        16        15        24     9      180.000000       15.652825         2
        17        16        15        24     9        0.000000       -0.811400         3
        17        16        15        24     9      180.000000       -0.177904         4
        17        18        19        20     9        0.000000       -0.132769         1
        17        18        19        20     9      180.000000        3.766307         2
        17        18        19        20     9        0.000000       -0.053273         3
        17        18        19        20     9      180.000000        0.019850         4
        17        18        19        21     9        0.000000        0.199277         1
        17        18        19        21     9      180.000000        4.693891         2
        17        18        19        21     9        0.000000        0.076537         3
        17        18        19        21     9      180.000000        0.159794         4
        17        18        23        24     9        0.000000        0.004468         1
        17        18        23        24     9      180.000000       17.290909         2
        17        18        23        24     9        0.000000       -1.412084         3
        17        18        23        24     9      180.000000       -0.281374         4
        17        18        23        40     9        0.000000        0.067031         1
        17        18        23        40     9      180.000000       13.430314         2
        17        18        23        40     9        0.000000       -0.522829         3
        17        18        23        40     9      180.000000        0.028762         4
        18        17        16        35     9        0.000000       -0.011359         1
        18        17        16        35     9      180.000000       15.170847         2
        18        17        16        35     9        0.000000       -0.525442         3
        18        17        16        35     9      180.000000        0.016825         4
        18        19        21        22     9        0.000000        0.478277         1
        18        19        21        22     9      180.000000       12.093380         2
        18        19        21        22     9        0.000000        0.620871         3
        18        19        21        22     9      180.000000       -0.090280         4
        18        23        24        41     9        0.000000       -0.011359         1
        18        23        24        41     9      180.000000       15.170847         2
        18        23        24        41     9        0.000000       -0.525441         3
        18        23        24        41     9      180.000000        0.016824         4
        19        18        17        36     9        0.000000        0.044684         1
        19        18        17        36     9      180.000000       11.539260         2
        19        18        17        36     9        0.000000       -0.224689         3
        19        18        17        36     9      180.000000       -0.003223         4
        19        18        23        24     9        0.000000        0.019374         1
        19        18        23        24     9      180.000000       13.297361         2
        19        18        23        24     9        0.000000       -0.162482         3
        19        18        23        24     9      180.000000       -0.207026         4
        19        18        23        40     9        0.000000        0.044684         1
        19        18        23        40     9      180.000000       11.539258         2
        19        18        23        40     9        0.000000       -0.224689         3
        19        18        23        40     9      180.000000       -0.003222         4
        19        21        22        37     9        0.000000        0.033346         1
        19        21        22        37     9      180.000000        0.010373         2
        19        21        22        37     9        0.000000        0.101041         3
        19        21        22        37     9      180.000000       -0.000718         4
        19        21        22        38     9        0.000000        0.033346         1
        19        21        22        38     9      180.000000        0.010373         2
        19        21        22        38     9        0.000000        0.101041         3
        19        21        22        38     9      180.000000       -0.000718         4
        19        21        22        39     9        0.000000        0.033346         1
        19        21        22        39     9      180.000000        0.010373         2
        19        21        22        39     9        0.000000        0.101041         3
        19        21        22        39     9      180.000000       -0.000718         4
        20        19        18        23     9        0.000000       -0.132769         1
        20        19        18        23     9      180.000000        3.766307         2
        20        19        18        23     9        0.000000       -0.053273         3
        20        19        18        23     9      180.000000        0.019850         4
        20        19        21        22     9        0.000000       -0.037352         1
        20        19        21        22     9      180.000000        9.651041         2
        20        19        21        22     9        0.000000       -0.838080         3
        20        19        21        22     9      180.000000        0.162656         4
        21        19        18        23     9        0.000000        0.199277         1
        21        19        18        23     9      180.000000        4.693891         2
        21        19        18        23     9        0.000000        0.076537         3
        21        19        18        23     9      180.000000        0.159794         4
        23        18        17        36     9        0.000000        0.067031         1
        23        18        17        36     9      180.000000       13.430317         2
        23        18        17        36     9        0.000000       -0.522829         3
        23        18        17        36     9      180.000000        0.028762         4
        24        15        14        34     9        0.000000        0.030016         1
        24        15        14        34     9      180.000000        3.303920         2
        24        15        14        34     9        0.000000       -0.054570         3
        24        15        14        34     9      180.000000       -0.206248         4
        24        15        16        35     9        0.000000        0.148962         1
        24        15        16        35     9      180.000000       12.721968         2
        24        15        16        35     9        0.000000       -0.410350         3
        24        15        16        35     9      180.000000        0.124865         4
        25        10         9        28     9        0.000000        0.040752         1
        25        10         9        28     9      180.000000       10.972651         2
        25        10         9        28     9        0.000000       -0.517360         3
        25        10         9        28     9      180.000000       -0.118747         4
        25        10        11        33     9        0.000000        0.403978         1
        25        10        11        33     9      180.000000        2.149404         2
        25        10        11        33     9        0.000000        0.432385         3
        25        10        11        33     9      180.000000       -0.165767         4
        25        26        27        28     9        0.000000        0.100605         1
        25        26        27        28     9      180.000000       20.168024         2
        25        26        27        28     9        0.000000       -1.195335         3
        25        26        27        28     9      180.000000       -0.567771         4
        25        26        27        44     9        0.000000        0.082489         1
        25        26        27        44     9      180.000000       14.362334         2
        25        26        27        44     9        0.000000       -0.749613         3
        25        26        27        44     9      180.000000        0.097547         4
        27        26        25        42     9        0.000000        0.167049         1
        27        26        25        42     9      180.000000       14.479790         2
        27        26        25        42     9        0.000000       -0.751910         3
        27        26        25        42     9      180.000000        0.148426         4
        28        27        26        43     9        0.000000        0.174483         1
        28        27        26        43     9      180.000000       15.688095         2
        28        27        26        43     9        0.000000       -0.259874         3
        28        27        26        43     9      180.000000       -0.156477         4
        29         7         6        32     9        0.000000        0.056010         1
        29         7         6        32     9      180.000000       12.890448         2
        29         7         6        32     9        0.000000       -0.522917         3
        29         7         6        32     9      180.000000        0.185411         4
        29        30        31        47     9        0.000000        0.117525         1
        29        30        31        47     9      180.000000       14.934186         2
        29        30        31        47     9        0.000000       -0.834549         3
        29        30        31        47     9      180.000000        0.101174         4
        31         5         6        32     9        0.000000        0.048363         1
        31         5         6        32     9      180.000000       14.235145         2
        31         5         6        32     9        0.000000       -0.596556         3
        31         5         6        32     9      180.000000        0.051989         4
        31        30        29        45     9        0.000000        0.108182         1
        31        30        29        45     9      180.000000       14.195930         2
        31        30        29        45     9        0.000000       -0.624027         3
        31        30        29        45     9      180.000000        0.118249         4
        35        16        17        36     9        0.000000       -0.166172         1
        35        16        17        36     9      180.000000       12.618849         2
        35        16        17        36     9        0.000000       -0.773072         3
        35        16        17        36     9      180.000000        0.352806         4
        40        23        24        41     9        0.000000       -0.166172         1
        40        23        24        41     9      180.000000       12.618848         2
        40        23        24        41     9        0.000000       -0.773072         3
        40        23        24        41     9      180.000000        0.352806         4
        42        25        26        43     9        0.000000       -0.114528         1
        42        25        26        43     9      180.000000       11.840300         2
        42        25        26        43     9        0.000000       -0.671560         3
        42        25        26        43     9      180.000000        0.313357         4
        43        26        27        44     9        0.000000       -0.153197         1
        43        26        27        44     9      180.000000       12.054830         2
        43        26        27        44     9        0.000000       -0.693173         3
        43        26        27        44     9      180.000000        0.290660         4
        45        29        30        46     9        0.000000       -0.117711         1
        45        29        30        46     9      180.000000       11.992923         2
        45        29        30        46     9        0.000000       -0.643509         3
        45        29        30        46     9      180.000000        0.217301         4
        46        30        31        47     9        0.000000       -0.153393         1
        46        30        31        47     9      180.000000       11.890618         2
        46        30        31        47     9        0.000000       -0.780758         3
        46        30        31        47     9      180.000000        0.311358         4

[ dihedrals ] ; impropers
;       ai        aj        ak        al funct           phase               k        pn
         6         5         7        32     4      180.000000        0.020953         2
         6         7        32         5     4      180.000000        0.020953         2
         6        32         5         7     4      180.000000        0.020953         2
        12        11        13        14     4      180.000000       20.276479         2
        12        13        14        11     4      180.000000       20.276479         2
        12        14        11        13     4      180.000000       20.276479         2
        19        18        20        21     4      180.000000       27.893333         2
        19        20        21        18     4      180.000000       27.893333         2
        19        21        18        20     4      180.000000       27.893333         2
        27        26        28        44     4      180.000000        0.546115         2
        27        28        44        26     4      180.000000        0.546115         2
        27        44        26        28     4      180.000000        0.546115         2
        29         7        30        45     4      180.000000        0.552125         2
        29        30        45         7     4      180.000000        0.552125         2
        29        45         7        30     4      180.000000        0.552125         2
        30        29        31        46     4      180.000000        1.974817         2
        30        31        46        29     4      180.000000        1.974817         2
        30        46        29        31     4      180.000000        1.974817         2

[ pairs ]
;       ai        aj funct
         1         6     1
         1        31     1
         2         7     1
         2        30     1
         2        32     1
         2        47     1
         3         6     1
         3        31     1
         4         6     1
         4        31     1
         5         8     1
         5        29     1
         5        46     1
         6         9     1
         6        30     1
         6        45     1
         6        47     1
         7        10     1
         7        28     1
         7        31     1
         7        46     1
         8        11     1
         8        25     1
         8        27     1
         8        30     1
         8        32     1
         8        45     1
         9        12     1
         9        26     1
         9        29     1
         9        33     1
         9        42     1
         9        44     1
        10        13     1
        10        14     1
        10        27     1
        10        43     1
        11        15     1
        11        26     1
        11        28     1
        11        34     1
        11        42     1
        12        16     1
        12        24     1
        12        25     1
        13        15     1
        13        33     1
        13        34     1
        14        17     1
        14        23     1
        14        33     1
        14        35     1
        14        41     1
        15        18     1
        15        36     1
        15        40     1
        16        19     1
        16        23     1
        16        34     1
        16        41     1
        17        20     1
        17        21     1
        17        24     1
        17        40     1
        18        22     1
        18        35     1
        18        41     1
        19        24     1
        19        36     1
        19        37     1
        19        38     1
        19        39     1
        19        40     1
        20        22     1
        20        23     1
        21        23     1
        23        36     1
        24        34     1
        24        35     1
        25        28     1
        25        33     1
        25        44     1
        27        42     1
        28        43     1
        29        32     1
        29        47     1
        31        32     1
        31        45     1
        35        36     1
        40        41     1
        42        43     1
        43        44     1
        45        46     1
        46        47     1
