; ITP file created by ByteFF-ML, 2025-12-06 04:49:21.944872

[ atomtypes ]
;name           bonded.type        at.num        mass        charge   ptype           sigma         epsilon
 cl0bf                                 17      0.0000       0.00000       A     3.46774e-01     1.10525e+00
 c1bf                                   6      0.0000       0.00000       A     3.31446e-01     4.13326e-01
 c2bf                                   6      0.0000       0.00000       A     3.31557e-01     4.13127e-01
 cl3bf                                 17      0.0000       0.00000       A     3.46772e-01     1.10535e+00
 c4bf                                   6      0.0000       0.00000       A     3.31459e-01     4.12656e-01
 c5bf                                   6      0.0000       0.00000       A     3.31471e-01     4.12595e-01
 c6bf                                   6      0.0000       0.00000       A     3.31335e-01     4.12182e-01
 n7bf                                   7      0.0000       0.00000       A     3.27142e-01     4.89323e-01
 c8bf                                   6      0.0000       0.00000       A     3.31259e-01     4.14898e-01
 o9bf                                   8      0.0000       0.00000       A     3.04781e-01     6.14498e-01
 n10bf                                  7      0.0000       0.00000       A     3.26853e-01     4.96156e-01
 c11bf                                  6      0.0000       0.00000       A     3.31219e-01     4.13182e-01
 c12bf                                  6      0.0000       0.00000       A     3.31241e-01     4.10680e-01
 o13bf                                  8      0.0000       0.00000       A     3.15756e-01     3.08030e-01
 c14bf                                  6      0.0000       0.00000       A     3.31584e-01     4.14956e-01
 c15bf                                  6      0.0000       0.00000       A     3.31475e-01     4.13159e-01
 c16bf                                  6      0.0000       0.00000       A     3.31621e-01     4.13385e-01
 c17bf                                  6      0.0000       0.00000       A     3.39851e-01     4.48847e-01
 f18bf                                  9      0.0000       0.00000       A     3.03451e-01     3.47961e-01
 f19bf                                  9      0.0000       0.00000       A     3.03451e-01     3.47961e-01
 f20bf                                  9      0.0000       0.00000       A     3.03451e-01     3.47961e-01
 c21bf                                  6      0.0000       0.00000       A     3.31502e-01     4.12745e-01
 c22bf                                  6      0.0000       0.00000       A     3.31532e-01     4.13738e-01
 c23bf                                  6      0.0000       0.00000       A     3.31510e-01     4.13886e-01
 n24bf                                  7      0.0000       0.00000       A     3.38247e-01     3.91955e-01
 c25bf                                  6      0.0000       0.00000       A     3.31514e-01     4.12560e-01
 c26bf                                  6      0.0000       0.00000       A     3.31481e-01     4.12981e-01
 c27bf                                  6      0.0000       0.00000       A     3.31584e-01     4.13224e-01
 c28bf                                  6      0.0000       0.00000       A     3.31515e-01     4.12397e-01
 h29bf                                  1      0.0000       0.00000       A     2.62540e-01     6.71849e-02
 h30bf                                  1      0.0000       0.00000       A     2.62548e-01     6.73206e-02
 h31bf                                  1      0.0000       0.00000       A     1.10460e-01     4.18649e-02
 h32bf                                  1      0.0000       0.00000       A     1.10974e-01     4.12520e-02
 h33bf                                  1      0.0000       0.00000       A     2.62520e-01     6.72073e-02
 h34bf                                  1      0.0000       0.00000       A     2.62655e-01     6.75361e-02
 h35bf                                  1      0.0000       0.00000       A     2.62527e-01     6.72711e-02
 h36bf                                  1      0.0000       0.00000       A     2.62525e-01     6.72408e-02
 h37bf                                  1      0.0000       0.00000       A     2.53538e-01     6.71594e-02
 h38bf                                  1      0.0000       0.00000       A     2.62506e-01     6.74387e-02
 h39bf                                  1      0.0000       0.00000       A     2.62621e-01     6.73062e-02
 h40bf                                  1      0.0000       0.00000       A     2.62431e-01     6.74180e-02

[ moleculetype ]
;name             nrexcl
 6p                    3

[ atoms ]
;       nr            type      resi   res      atom      cgnr      charge          mass ; qtot
         1           cl0bf         1   UNL       cl0         1    -0.17237       35.4530 ; qtot   -0.172
         2            c1bf         1   UNL        c1         2     0.15194       12.0110 ; qtot   -0.020
         3            c2bf         1   UNL        c2         3     0.10086       12.0110 ; qtot    0.080
         4           cl3bf         1   UNL       cl3         4    -0.17719       35.4530 ; qtot   -0.097
         5            c4bf         1   UNL        c4         5    -0.06790       12.0110 ; qtot   -0.165
         6            c5bf         1   UNL        c5         6    -0.14549       12.0110 ; qtot   -0.310
         7            c6bf         1   UNL        c6         7     0.00224       12.0110 ; qtot   -0.308
         8            n7bf         1   UNL        n7         8    -0.16354       14.0070 ; qtot   -0.471
         9            c8bf         1   UNL        c8         9     0.66074       12.0110 ; qtot    0.189
        10            o9bf         1   UNL        o9        10    -0.59569       15.9990 ; qtot   -0.406
        11           n10bf         1   UNL       n10        11    -0.15042       14.0070 ; qtot   -0.557
        12           c11bf         1   UNL       c11        12    -0.06788       12.0110 ; qtot   -0.625
        13           c12bf         1   UNL       c12        13     0.51952       12.0110 ; qtot   -0.105
        14           o13bf         1   UNL       o13        14    -0.38334       15.9990 ; qtot   -0.489
        15           c14bf         1   UNL       c14        15     0.11228       12.0110 ; qtot   -0.376
        16           c15bf         1   UNL       c15        16    -0.06086       12.0110 ; qtot   -0.437
        17           c16bf         1   UNL       c16        17    -0.16367       12.0110 ; qtot   -0.601
        18           c17bf         1   UNL       c17        18     0.33660       12.0110 ; qtot   -0.264
        19           f18bf         1   UNL       f18        19    -0.10409       18.9980 ; qtot   -0.368
        20           f19bf         1   UNL       f19        20    -0.10409       18.9980 ; qtot   -0.472
        21           f20bf         1   UNL       f20        21    -0.10409       18.9980 ; qtot   -0.576
        22           c21bf         1   UNL       c21        22    -0.07766       12.0110 ; qtot   -0.654
        23           c22bf         1   UNL       c22        23    -0.09237       12.0110 ; qtot   -0.746
        24           c23bf         1   UNL       c23        24    -0.11065       12.0110 ; qtot   -0.857
        25           n24bf         1   UNL       n24        25    -0.70598       14.0070 ; qtot   -1.563
        26           c25bf         1   UNL       c25        26     0.34178       12.0110 ; qtot   -1.221
        27           c26bf         1   UNL       c26        27    -0.15962       12.0110 ; qtot   -1.381
        28           c27bf         1   UNL       c27        28    -0.08259       12.0110 ; qtot   -1.464
        29           c28bf         1   UNL       c28        29    -0.14513       12.0110 ; qtot   -1.609
        30           h29bf         1   UNL       h29        30     0.13721        1.0080 ; qtot   -1.471
        31           h30bf         1   UNL       h30        31     0.14063        1.0080 ; qtot   -1.331
        32           h31bf         1   UNL       h31        32     0.15810        1.0080 ; qtot   -1.173
        33           h32bf         1   UNL       h32        33     0.17579        1.0080 ; qtot   -0.997
        34           h33bf         1   UNL       h33        34     0.14610        1.0080 ; qtot   -0.851
        35           h34bf         1   UNL       h34        35     0.13256        1.0080 ; qtot   -0.718
        36           h35bf         1   UNL       h35        36     0.12498        1.0080 ; qtot   -0.593
        37           h36bf         1   UNL       h36        37     0.13259        1.0080 ; qtot   -0.461
        38           h37bf         1   UNL       h37        38     0.02910        1.0080 ; qtot   -0.432
        39           h38bf         1   UNL       h38        39     0.12997        1.0080 ; qtot   -0.302
        40           h39bf         1   UNL       h39        40     0.15134        1.0080 ; qtot   -0.150
        41           h40bf         1   UNL       h40        41     0.15029        1.0080 ; qtot   -0.000

[ bonds ]
;       ai        aj funct               r               k
         1         2     1        0.174600   157527.204175
         2         3     1        0.140173   278278.289453
         2        29     1        0.139597   306486.095264
         3         4     1        0.174657   159201.442603
         3         5     1        0.139826   295654.147266
         5         6     1        0.139244   327308.415820
         5        30     1        0.108451   325310.749902
         6         7     1        0.140520   283729.338672
         6        31     1        0.108326   327926.950146
         7         8     1        0.140715   253131.336035
         7        29     1        0.140377   285791.511328
         8         9     1        0.138525   247827.074121
         8        32     1        0.101105   419215.961719
         9        10     1        0.122725   593985.707227
         9        11     1        0.138886   239709.822998
        11        12     1        0.140423   262254.059766
        11        33     1        0.101419   408858.186768
        12        13     1        0.141455   241784.559912
        12        28     1        0.139669   302796.953369
        13        14     1        0.137972   227076.921436
        13        25     1        0.131650   340496.647363
        14        15     1        0.139076   226098.952295
        15        16     1        0.139458   302119.760303
        15        24     1        0.139507   300349.451270
        16        17     1        0.139683   306929.649316
        16        34     1        0.108435   325508.739111
        17        18     1        0.150642   194411.357812
        17        22     1        0.139893   298842.480908
        18        19     1        0.135848   221750.289014
        18        20     1        0.135848   221750.289014
        18        21     1        0.135848   221750.289014
        22        23     1        0.139776   311431.586328
        22        35     1        0.108475   324244.422363
        23        24     1        0.139703   315002.338184
        23        36     1        0.108575   321535.088281
        24        37     1        0.108471   324023.654053
        25        26     1        0.134429   311714.895020
        26        27     1        0.139139   305686.170850
        26        38     1        0.108728   317581.203174
        27        28     1        0.140003   313082.713672
        27        39     1        0.108503   324361.765381
        28        40     1        0.108193   330892.421436
        29        41     1        0.108262   329128.777588

[ angles ]
;       ai        aj        ak funct           theta             cth
         1         2         3     1      121.339745      355.244494
         1         2        29     1      118.215576      350.332686
         2         3         4     1      121.890038      370.898997
         2         3         5     1      118.956436      522.172789
         2        29         7     1      120.261368      719.993900
         2        29        41     1      119.439194      362.726101
         3         2        29     1      120.534225      575.799889
         3         5         6     1      121.084351      630.319383
         3         5        30     1      118.998734      429.309006
         4         3         5     1      119.194199      348.548951
         5         6         7     1      119.968285      750.581994
         5         6        31     1      120.057274      385.924139
         6         5        30     1      119.946854      419.253163
         6         7         8     1      121.031738      598.037731
         6         7        29     1      119.248085      529.311592
         7         6        31     1      119.973267      444.275316
         7         8         9     1      128.150970      464.249645
         7         8        32     1      114.989357      453.726154
         7        29        41     1      120.466896      427.829641
         8         7        29     1      119.733688      572.174769
         8         9        10     1      124.518394      550.027966
         8         9        11     1      112.608788      545.924089
         9         8        32     1      116.247543      459.672310
         9        11        12     1      126.276352      452.689379
         9        11        33     1      117.628128      436.697435
        10         9        11     1      123.886490      550.707764
        11        12        13     1      117.626175      431.158851
        11        12        28     1      125.502136      569.232191
        12        11        33     1      114.048378      434.130349
        12        13        14     1      116.891190      365.084836
        12        13        25     1      124.298561      669.115487
        12        28        27     1      118.717087      830.537407
        12        28        40     1      119.480087      442.212844
        13        12        28     1      116.875977      643.692976
        13        14        15     1      118.996475      468.152993
        13        25        26     1      118.202881      715.701240
        14        13        25     1      119.251526      575.307278
        14        15        16     1      119.127602      475.579822
        14        15        24     1      119.560463      505.160382
        15        16        17     1      118.906960      675.205641
        15        16        34     1      119.610718      415.840096
        15        24        23     1      119.077614      700.722321
        15        24        37     1      119.664551      413.801469
        16        15        24     1      121.136398      642.560341
        16        17        18     1      119.258873      488.824357
        16        17        22     1      120.920876      664.961046
        17        16        34     1      121.073891      390.436674
        17        18        19     1      111.963486      590.221141
        17        18        20     1      111.963486      590.221141
        17        18        21     1      111.963486      590.221141
        17        22        23     1      119.033890      671.258051
        17        22        35     1      120.217079      418.336221
        18        17        22     1      119.563637      526.853294
        19        18        20     1      106.673416      701.102377
        19        18        21     1      106.673416      701.102377
        20        18        21     1      106.673416      701.102377
        22        23        24     1      120.545677      713.667337
        22        23        36     1      119.880020      433.195499
        23        22        35     1      120.676857      426.254353
        23        24        37     1      121.394608      418.058186
        24        23        36     1      119.583778      428.611077
        25        26        27     1      122.499290      661.638094
        25        26        38     1      116.190018      392.705071
        26        27        28     1      119.055466      724.682960
        26        27        39     1      120.600418      442.820723
        27        26        38     1      121.265182      408.189051
        27        28        40     1      121.786964      385.096928
        28        27        39     1      120.423500      439.039347

[ dihedrals ] ; propers for gromacs 4.5 or higher, use funct 9
;       ai        aj        ak        al funct           phase               k        pn
         1         2         3         4     9        0.000000       -0.125679         1
         1         2         3         4     9      180.000000       17.621511         2
         1         2         3         4     9        0.000000        0.247777         3
         1         2         3         4     9      180.000000       -0.773349         4
         1         2         3         5     9        0.000000        0.186603         1
         1         2         3         5     9      180.000000       16.602167         2
         1         2         3         5     9        0.000000        0.111180         3
         1         2         3         5     9      180.000000       -0.410939         4
         1         2        29         7     9        0.000000        0.320441         1
         1         2        29         7     9      180.000000       18.452521         2
         1         2        29         7     9        0.000000        0.375328         3
         1         2        29         7     9      180.000000       -0.551347         4
         1         2        29        41     9        0.000000        0.173046         1
         1         2        29        41     9      180.000000       13.895297         2
         1         2        29        41     9        0.000000       -0.162254         3
         1         2        29        41     9      180.000000        0.150573         4
         2         3         5         6     9        0.000000       -0.041412         1
         2         3         5         6     9      180.000000       17.334728         2
         2         3         5         6     9        0.000000       -1.203754         3
         2         3         5         6     9      180.000000       -0.391968         4
         2         3         5        30     9        0.000000        0.102311         1
         2         3         5        30     9      180.000000       13.316749         2
         2         3         5        30     9        0.000000       -0.479241         3
         2         3         5        30     9      180.000000        0.114573         4
         2        29         7         6     9        0.000000       -0.054010         1
         2        29         7         6     9      180.000000       16.306724         2
         2        29         7         6     9        0.000000       -1.081226         3
         2        29         7         6     9      180.000000       -0.245636         4
         2        29         7         8     9        0.000000        0.364313         1
         2        29         7         8     9      180.000000       16.765250         2
         2        29         7         8     9        0.000000        0.257900         3
         2        29         7         8     9      180.000000       -0.429350         4
         3         2        29         7     9        0.000000        0.015828         1
         3         2        29         7     9      180.000000       17.060762         2
         3         2        29         7     9        0.000000       -1.284527         3
         3         2        29         7     9      180.000000       -0.355216         4
         3         2        29        41     9        0.000000        0.112356         1
         3         2        29        41     9      180.000000       13.409977         2
         3         2        29        41     9        0.000000       -0.498972         3
         3         2        29        41     9      180.000000        0.142106         4
         3         5         6         7     9        0.000000       -0.047563         1
         3         5         6         7     9      180.000000       18.388010         2
         3         5         6         7     9        0.000000       -1.619858         3
         3         5         6         7     9      180.000000       -0.391936         4
         3         5         6        31     9        0.000000        0.136141         1
         3         5         6        31     9      180.000000       14.650571         2
         3         5         6        31     9        0.000000       -0.448626         3
         3         5         6        31     9      180.000000        0.094606         4
         4         3         2        29     9        0.000000        0.034810         1
         4         3         2        29     9      180.000000       16.207355         2
         4         3         2        29     9        0.000000       -0.097577         3
         4         3         2        29     9      180.000000       -0.377820         4
         4         3         5         6     9        0.000000        0.398118         1
         4         3         5         6     9      180.000000       18.587399         2
         4         3         5         6     9        0.000000        0.241311         3
         4         3         5         6     9      180.000000       -0.541785         4
         4         3         5        30     9        0.000000        0.203597         1
         4         3         5        30     9      180.000000       13.346051         2
         4         3         5        30     9        0.000000       -0.157229         3
         4         3         5        30     9      180.000000        0.223424         4
         5         3         2        29     9        0.000000       -0.082176         1
         5         3         2        29     9      180.000000       16.343588         2
         5         3         2        29     9        0.000000       -0.953292         3
         5         3         2        29     9      180.000000       -0.352878         4
         5         6         7         8     9        0.000000        0.408016         1
         5         6         7         8     9      180.000000       17.078570         2
         5         6         7         8     9        0.000000        0.217665         3
         5         6         7         8     9      180.000000       -0.337844         4
         5         6         7        29     9        0.000000        0.053083         1
         5         6         7        29     9      180.000000       16.172385         2
         5         6         7        29     9        0.000000       -1.031010         3
         5         6         7        29     9      180.000000       -0.217839         4
         6         7         8         9     9        0.000000        0.231184         1
         6         7         8         9     9      180.000000        2.108894         2
         6         7         8         9     9        0.000000       -0.123945         3
         6         7         8         9     9      180.000000        0.268593         4
         6         7         8        32     9        0.000000       -0.135333         1
         6         7         8        32     9      180.000000        2.632323         2
         6         7         8        32     9        0.000000       -0.118327         3
         6         7         8        32     9      180.000000       -0.188186         4
         6         7        29        41     9        0.000000        0.129970         1
         6         7        29        41     9      180.000000       12.704517         2
         6         7        29        41     9        0.000000       -0.643870         3
         6         7        29        41     9      180.000000        0.182290         4
         7         6         5        30     9        0.000000        0.023209         1
         7         6         5        30     9      180.000000       14.565430         2
         7         6         5        30     9        0.000000       -0.587218         3
         7         6         5        30     9      180.000000        0.049443         4
         7         8         9        10     9        0.000000       -2.501250         1
         7         8         9        10     9      180.000000        4.106587         2
         7         8         9        10     9        0.000000       -0.697495         3
         7         8         9        10     9      180.000000       -0.137421         4
         7         8         9        11     9        0.000000        5.761971         1
         7         8         9        11     9      180.000000        5.363664         2
         7         8         9        11     9        0.000000       -0.099345         3
         7         8         9        11     9      180.000000       -0.049849         4
         8         7         6        31     9        0.000000       -0.082731         1
         8         7         6        31     9      180.000000       13.682834         2
         8         7         6        31     9        0.000000       -0.241566         3
         8         7         6        31     9      180.000000        0.232774         4
         8         7        29        41     9        0.000000       -0.148268         1
         8         7        29        41     9      180.000000       13.335022         2
         8         7        29        41     9        0.000000       -0.316239         3
         8         7        29        41     9      180.000000        0.280071         4
         8         9        11        12     9        0.000000        5.519249         1
         8         9        11        12     9      180.000000        6.394440         2
         8         9        11        12     9        0.000000       -0.048161         3
         8         9        11        12     9      180.000000       -0.145072         4
         8         9        11        33     9        0.000000        4.462483         1
         8         9        11        33     9      180.000000        6.894050         2
         8         9        11        33     9        0.000000       -0.410504         3
         8         9        11        33     9      180.000000        0.202802         4
         9         8         7        29     9        0.000000       -0.224943         1
         9         8         7        29     9      180.000000        2.163482         2
         9         8         7        29     9        0.000000       -0.131852         3
         9         8         7        29     9      180.000000        0.280125         4
         9        11        12        13     9        0.000000       -1.891644         1
         9        11        12        13     9      180.000000        1.922334         2
         9        11        12        13     9        0.000000        0.305756         3
         9        11        12        13     9      180.000000       -0.046941         4
         9        11        12        28     9        0.000000       -0.468535         1
         9        11        12        28     9      180.000000        1.875921         2
         9        11        12        28     9        0.000000       -0.412224         3
         9        11        12        28     9      180.000000        0.469219         4
        10         9         8        32     9        0.000000       -1.969015         1
        10         9         8        32     9      180.000000        5.846682         2
        10         9         8        32     9        0.000000        0.117157         3
        10         9         8        32     9      180.000000        0.127526         4
        10         9        11        12     9        0.000000       -2.531743         1
        10         9        11        12     9      180.000000        4.872688         2
        10         9        11        12     9        0.000000       -0.696803         3
        10         9        11        12     9      180.000000       -0.176057         4
        10         9        11        33     9        0.000000       -2.204784         1
        10         9        11        33     9      180.000000        5.153816         2
        10         9        11        33     9        0.000000       -0.121163         3
        10         9        11        33     9      180.000000       -0.071652         4
        11         9         8        32     9        0.000000        4.748796         1
        11         9         8        32     9      180.000000        6.857193         2
        11         9         8        32     9        0.000000       -0.552689         3
        11         9         8        32     9      180.000000        0.301755         4
        11        12        13        14     9        0.000000        0.079118         1
        11        12        13        14     9      180.000000       15.943068         2
        11        12        13        14     9        0.000000        0.335160         3
        11        12        13        14     9      180.000000       -0.375931         4
        11        12        13        25     9        0.000000        0.220828         1
        11        12        13        25     9      180.000000       12.478480         2
        11        12        13        25     9        0.000000       -0.109575         3
        11        12        13        25     9      180.000000       -0.329487         4
        11        12        28        27     9        0.000000        0.334774         1
        11        12        28        27     9      180.000000       18.629022         2
        11        12        28        27     9        0.000000        0.316335         3
        11        12        28        27     9      180.000000       -0.464757         4
        11        12        28        40     9        0.000000        0.246514         1
        11        12        28        40     9      180.000000       14.352632         2
        11        12        28        40     9        0.000000       -0.128549         3
        11        12        28        40     9      180.000000        0.162568         4
        12        13        14        15     9        0.000000        2.791598         1
        12        13        14        15     9      180.000000        2.854338         2
        12        13        14        15     9        0.000000        0.008276         3
        12        13        14        15     9      180.000000       -0.081408         4
        12        13        25        26     9        0.000000        0.158669         1
        12        13        25        26     9      180.000000       23.115477         2
        12        13        25        26     9        0.000000       -0.233633         3
        12        13        25        26     9      180.000000       -0.071711         4
        12        28        27        26     9        0.000000        0.066168         1
        12        28        27        26     9      180.000000       18.396385         2
        12        28        27        26     9        0.000000       -2.102023         3
        12        28        27        26     9      180.000000       -0.535985         4
        12        28        27        39     9        0.000000        0.126273         1
        12        28        27        39     9      180.000000       15.018723         2
        12        28        27        39     9        0.000000       -0.647982         3
        12        28        27        39     9      180.000000       -0.080098         4
        13        12        11        33     9        0.000000        1.738828         1
        13        12        11        33     9      180.000000        1.587694         2
        13        12        11        33     9        0.000000        0.489557         3
        13        12        11        33     9      180.000000       -0.381082         4
        13        12        28        27     9        0.000000        0.030817         1
        13        12        28        27     9      180.000000       17.824404         2
        13        12        28        27     9        0.000000       -1.212316         3
        13        12        28        27     9      180.000000       -0.515062         4
        13        12        28        40     9        0.000000        0.112899         1
        13        12        28        40     9      180.000000       13.626117         2
        13        12        28        40     9        0.000000       -0.408094         3
        13        12        28        40     9      180.000000        0.036469         4
        13        14        15        16     9        0.000000       -0.096951         1
        13        14        15        16     9      180.000000        3.845559         2
        13        14        15        16     9        0.000000       -0.637444         3
        13        14        15        16     9      180.000000        0.505060         4
        13        14        15        24     9        0.000000        0.084530         1
        13        14        15        24     9      180.000000        3.730264         2
        13        14        15        24     9        0.000000       -0.527888         3
        13        14        15        24     9      180.000000        0.458010         4
        13        25        26        27     9        0.000000        0.056121         1
        13        25        26        27     9      180.000000       22.227408         2
        13        25        26        27     9        0.000000       -1.099500         3
        13        25        26        27     9      180.000000       -0.344180         4
        13        25        26        38     9        0.000000        1.036486         1
        13        25        26        38     9      180.000000       19.807955         2
        13        25        26        38     9        0.000000        0.288466         3
        13        25        26        38     9      180.000000       -0.599441         4
        14        13        12        28     9        0.000000        0.367062         1
        14        13        12        28     9      180.000000       12.897585         2
        14        13        12        28     9        0.000000        0.264182         3
        14        13        12        28     9      180.000000       -0.062919         4
        14        13        25        26     9        0.000000        0.951283         1
        14        13        25        26     9      180.000000       29.893619         2
        14        13        25        26     9        0.000000        1.349691         3
        14        13        25        26     9      180.000000       -0.721816         4
        14        15        16        17     9        0.000000        0.461177         1
        14        15        16        17     9      180.000000       18.685890         2
        14        15        16        17     9        0.000000        0.578921         3
        14        15        16        17     9      180.000000       -0.438095         4
        14        15        16        34     9        0.000000        0.241204         1
        14        15        16        34     9      180.000000       13.972061         2
        14        15        16        34     9        0.000000        0.209932         3
        14        15        16        34     9      180.000000        0.287732         4
        14        15        24        23     9        0.000000        0.691592         1
        14        15        24        23     9      180.000000       18.726701         2
        14        15        24        23     9        0.000000        0.679696         3
        14        15        24        23     9      180.000000       -0.385291         4
        14        15        24        37     9        0.000000        0.168961         1
        14        15        24        37     9      180.000000       14.166477         2
        14        15        24        37     9        0.000000        0.177157         3
        14        15        24        37     9      180.000000        0.249999         4
        15        14        13        25     9        0.000000       -1.163768         1
        15        14        13        25     9      180.000000        4.059283         2
        15        14        13        25     9        0.000000       -0.809870         3
        15        14        13        25     9      180.000000       -0.060209         4
        15        16        17        18     9        0.000000        0.215367         1
        15        16        17        18     9      180.000000       15.224711         2
        15        16        17        18     9        0.000000        0.160888         3
        15        16        17        18     9      180.000000       -0.294407         4
        15        16        17        22     9        0.000000       -0.080830         1
        15        16        17        22     9      180.000000       18.431429         2
        15        16        17        22     9        0.000000       -1.585222         3
        15        16        17        22     9      180.000000       -0.412846         4
        15        24        23        22     9        0.000000       -0.065058         1
        15        24        23        22     9      180.000000       18.729965         2
        15        24        23        22     9        0.000000       -1.425256         3
        15        24        23        22     9      180.000000       -0.471228         4
        15        24        23        36     9        0.000000        0.047457         1
        15        24        23        36     9      180.000000       14.866803         2
        15        24        23        36     9        0.000000       -0.511681         3
        15        24        23        36     9      180.000000        0.022194         4
        16        15        24        23     9        0.000000        0.009737         1
        16        15        24        23     9      180.000000       16.835914         2
        16        15        24        23     9        0.000000       -0.933731         3
        16        15        24        23     9      180.000000       -0.219708         4
        16        15        24        37     9        0.000000        0.042221         1
        16        15        24        37     9      180.000000       13.111511         2
        16        15        24        37     9        0.000000       -0.535863         3
        16        15        24        37     9      180.000000        0.136008         4
        16        17        18        19     9        0.000000       -0.056845         1
        16        17        18        19     9      180.000000        0.147565         2
        16        17        18        19     9        0.000000        0.094344         3
        16        17        18        19     9      180.000000        0.023205         4
        16        17        18        20     9        0.000000       -0.056845         1
        16        17        18        20     9      180.000000        0.147565         2
        16        17        18        20     9        0.000000        0.094344         3
        16        17        18        20     9      180.000000        0.023205         4
        16        17        18        21     9        0.000000       -0.056845         1
        16        17        18        21     9      180.000000        0.147565         2
        16        17        18        21     9        0.000000        0.094344         3
        16        17        18        21     9      180.000000        0.023205         4
        16        17        22        23     9        0.000000       -0.097627         1
        16        17        22        23     9      180.000000       18.802132         2
        16        17        22        23     9        0.000000       -1.614990         3
        16        17        22        23     9      180.000000       -0.392323         4
        16        17        22        35     9        0.000000        0.086681         1
        16        17        22        35     9      180.000000       14.632807         2
        16        17        22        35     9        0.000000       -0.721878         3
        16        17        22        35     9      180.000000        0.027500         4
        17        16        15        24     9        0.000000        0.131992         1
        17        16        15        24     9      180.000000       17.207646         2
        17        16        15        24     9        0.000000       -0.953156         3
        17        16        15        24     9      180.000000       -0.284457         4
        17        22        23        24     9        0.000000        0.076386         1
        17        22        23        24     9      180.000000       18.872774         2
        17        22        23        24     9        0.000000       -1.670060         3
        17        22        23        24     9      180.000000       -0.377129         4
        17        22        23        36     9        0.000000        0.075182         1
        17        22        23        36     9      180.000000       14.906743         2
        17        22        23        36     9        0.000000       -0.691169         3
        17        22        23        36     9      180.000000        0.085826         4
        18        17        16        34     9        0.000000        0.062054         1
        18        17        16        34     9      180.000000       12.135618         2
        18        17        16        34     9        0.000000       -0.273581         3
        18        17        16        34     9      180.000000        0.098556         4
        18        17        22        23     9        0.000000        0.052565         1
        18        17        22        23     9      180.000000       15.093531         2
        18        17        22        23     9        0.000000       -0.022061         3
        18        17        22        23     9      180.000000       -0.279823         4
        18        17        22        35     9        0.000000        0.021647         1
        18        17        22        35     9      180.000000       12.001621         2
        18        17        22        35     9        0.000000       -0.324659         3
        18        17        22        35     9      180.000000        0.133723         4
        19        18        17        22     9        0.000000       -0.024665         1
        19        18        17        22     9      180.000000        0.065953         2
        19        18        17        22     9        0.000000        0.107954         3
        19        18        17        22     9      180.000000        0.013499         4
        20        18        17        22     9        0.000000       -0.024665         1
        20        18        17        22     9      180.000000        0.065953         2
        20        18        17        22     9        0.000000        0.107954         3
        20        18        17        22     9      180.000000        0.013499         4
        21        18        17        22     9        0.000000       -0.024665         1
        21        18        17        22     9      180.000000        0.065953         2
        21        18        17        22     9        0.000000        0.107954         3
        21        18        17        22     9      180.000000        0.013499         4
        22        17        16        34     9        0.000000        0.048364         1
        22        17        16        34     9      180.000000       14.235145         2
        22        17        16        34     9        0.000000       -0.596557         3
        22        17        16        34     9      180.000000        0.051989         4
        22        23        24        37     9        0.000000        0.108181         1
        22        23        24        37     9      180.000000       14.195930         2
        22        23        24        37     9        0.000000       -0.624026         3
        22        23        24        37     9      180.000000        0.118250         4
        24        15        16        34     9        0.000000        0.056010         1
        24        15        16        34     9      180.000000       12.890448         2
        24        15        16        34     9        0.000000       -0.522917         3
        24        15        16        34     9      180.000000        0.185410         4
        24        23        22        35     9        0.000000        0.117525         1
        24        23        22        35     9      180.000000       14.934186         2
        24        23        22        35     9        0.000000       -0.834549         3
        24        23        22        35     9      180.000000        0.101173         4
        25        13        12        28     9        0.000000        0.040752         1
        25        13        12        28     9      180.000000       10.972651         2
        25        13        12        28     9        0.000000       -0.517360         3
        25        13        12        28     9      180.000000       -0.118747         4
        25        26        27        28     9        0.000000        0.100605         1
        25        26        27        28     9      180.000000       20.168024         2
        25        26        27        28     9        0.000000       -1.195335         3
        25        26        27        28     9      180.000000       -0.567771         4
        25        26        27        39     9        0.000000        0.174483         1
        25        26        27        39     9      180.000000       15.688095         2
        25        26        27        39     9        0.000000       -0.259874         3
        25        26        27        39     9      180.000000       -0.156477         4
        26        27        28        40     9        0.000000        0.167049         1
        26        27        28        40     9      180.000000       14.479790         2
        26        27        28        40     9        0.000000       -0.751910         3
        26        27        28        40     9      180.000000        0.148426         4
        28        12        11        33     9        0.000000        0.403978         1
        28        12        11        33     9      180.000000        2.149404         2
        28        12        11        33     9        0.000000        0.432385         3
        28        12        11        33     9      180.000000       -0.165767         4
        28        27        26        38     9        0.000000        0.082489         1
        28        27        26        38     9      180.000000       14.362334         2
        28        27        26        38     9        0.000000       -0.749613         3
        28        27        26        38     9      180.000000        0.097547         4
        29         7         6        31     9        0.000000        0.183903         1
        29         7         6        31     9      180.000000       12.924588         2
        29         7         6        31     9        0.000000       -0.467139         3
        29         7         6        31     9      180.000000        0.122925         4
        29         7         8        32     9        0.000000        0.507425         1
        29         7         8        32     9      180.000000        2.661913         2
        29         7         8        32     9        0.000000        0.130928         3
        29         7         8        32     9      180.000000       -0.200100         4
        30         5         6        31     9        0.000000       -0.155029         1
        30         5         6        31     9      180.000000       12.227111         2
        30         5         6        31     9        0.000000       -0.770000         3
        30         5         6        31     9      180.000000        0.265938         4
        35        22        23        36     9        0.000000       -0.153392         1
        35        22        23        36     9      180.000000       11.890617         2
        35        22        23        36     9        0.000000       -0.780758         3
        35        22        23        36     9      180.000000        0.311358         4
        36        23        24        37     9        0.000000       -0.117711         1
        36        23        24        37     9      180.000000       11.992922         2
        36        23        24        37     9        0.000000       -0.643510         3
        36        23        24        37     9      180.000000        0.217301         4
        38        26        27        39     9        0.000000       -0.153197         1
        38        26        27        39     9      180.000000       12.054830         2
        38        26        27        39     9        0.000000       -0.693173         3
        38        26        27        39     9      180.000000        0.290660         4
        39        27        28        40     9        0.000000       -0.114528         1
        39        27        28        40     9      180.000000       11.840300         2
        39        27        28        40     9        0.000000       -0.671560         3
        39        27        28        40     9      180.000000        0.313357         4

[ dihedrals ] ; impropers
;       ai        aj        ak        al funct           phase               k        pn
         9         8        10        11     4      180.000000       20.316285         2
         9        10        11         8     4      180.000000       20.316285         2
         9        11         8        10     4      180.000000       20.316285         2
        16        15        17        34     4      180.000000        0.020954         2
        16        17        34        15     4      180.000000        0.020954         2
        16        34        15        17     4      180.000000        0.020954         2
        23        22        24        36     4      180.000000        1.974818         2
        23        24        36        22     4      180.000000        1.974818         2
        23        36        22        24     4      180.000000        1.974818         2
        24        15        23        37     4      180.000000        0.552125         2
        24        23        37        15     4      180.000000        0.552125         2
        24        37        15        23     4      180.000000        0.552125         2
        26        25        27        38     4      180.000000        0.546115         2
        26        27        38        25     4      180.000000        0.546115         2
        26        38        25        27     4      180.000000        0.546115         2

[ pairs ]
;       ai        aj funct
         1         4     1
         1         5     1
         1         7     1
         1        41     1
         2         6     1
         2         8     1
         2        30     1
         3         7     1
         3        31     1
         3        41     1
         4         6     1
         4        29     1
         4        30     1
         5         8     1
         5        29     1
         6         9     1
         6        32     1
         6        41     1
         7        10     1
         7        11     1
         7        30     1
         8        12     1
         8        31     1
         8        33     1
         8        41     1
         9        13     1
         9        28     1
         9        29     1
        10        12     1
        10        32     1
        10        33     1
        11        14     1
        11        25     1
        11        27     1
        11        32     1
        11        40     1
        12        15     1
        12        26     1
        12        39     1
        13        16     1
        13        24     1
        13        27     1
        13        33     1
        13        38     1
        13        40     1
        14        17     1
        14        23     1
        14        26     1
        14        28     1
        14        34     1
        14        37     1
        15        18     1
        15        22     1
        15        25     1
        15        36     1
        16        19     1
        16        20     1
        16        21     1
        16        23     1
        16        35     1
        16        37     1
        17        24     1
        17        36     1
        18        23     1
        18        34     1
        18        35     1
        19        22     1
        20        22     1
        21        22     1
        22        34     1
        22        37     1
        24        34     1
        24        35     1
        25        28     1
        25        39     1
        26        40     1
        28        33     1
        28        38     1
        29        31     1
        29        32     1
        30        31     1
        35        36     1
        36        37     1
        38        39     1
        39        40     1
