Generated by PDBParser
390
    1SOL     OW    1   1.188  -0.917   3.291
    1SOL    HW1    2   1.263  -0.911   3.224
    1SOL    HW2    3   1.206  -0.854   3.366
    2SOL     OW    4  -1.384  -0.170   0.207
    2SOL    HW1    5  -1.315  -0.189   0.137
    2SOL    HW2    6  -1.473  -0.157   0.163
    3SOL     OW    7   1.466  -0.335   1.245
    3SOL    HW1    8   1.499  -0.414   1.298
    3SOL    HW2    9   1.480  -0.251   1.298
    4SOL     OW   10  -1.201  -0.024   2.958
    4SOL    HW1   11  -1.123  -0.080   2.988
    4SOL    HW2   12  -1.250  -0.072   2.885
    5SOL     OW   13  -0.957  -0.900   1.577
    5SOL    HW1   14  -0.929  -0.833   1.647
    5SOL    HW2   15  -0.947  -0.857   1.486
    6SOL     OW   16  -0.042   0.527   2.313
    6SOL    HW1   17   0.027   0.455   2.306
    6SOL    HW2   18  -0.064   0.540   2.410
    7SOL     OW   19  -1.049   0.255   2.186
    7SOL    HW1   20  -1.024   0.199   2.106
    7SOL    HW2   21  -1.112   0.327   2.155
    8SOL     OW   22  -1.238  -1.917   1.708
    8SOL    HW1   23  -1.298  -1.900   1.629
    8SOL    HW2   24  -1.200  -2.010   1.701
    9SOL     OW   25  -1.216  -0.936   1.704
    9SOL    HW1   26  -1.129  -0.903   1.666
    9SOL    HW2   27  -1.263  -0.860   1.750
   10SOL     OW   28  -1.072  -0.629  -0.237
   10SOL    HW1   29  -0.997  -0.692  -0.216
   10SOL    HW2   30  -1.052  -0.539  -0.199
   11SOL     OW   31   1.462  -0.964   2.762
   11SOL    HW1   32   1.421  -0.974   2.852
   11SOL    HW2   33   1.496  -1.052   2.731
   12SOL     OW   34  -1.830   0.005   0.760
   12SOL    HW1   35  -1.886   0.044   0.688
   12SOL    HW2   36  -1.804  -0.089   0.735
   13SOL     OW   37  -0.756  -1.395   0.461
   13SOL    HW1   38  -0.732  -1.477   0.512
   13SOL    HW2   39  -0.853  -1.376   0.474
   14SOL     OW   40  -1.193   0.404   1.928
   14SOL    HW1   41  -1.202   0.341   1.851
   14SOL    HW2   42  -1.282   0.442   1.951
   15SOL     OW   43  -0.399  -0.705   3.581
   15SOL    HW1   44  -0.402  -0.742   3.675
   15SOL    HW2   45  -0.318  -0.741   3.534
   16SOL     OW   46  -1.135  -0.940   1.196
   16SOL    HW1   47  -1.196  -0.937   1.276
   16SOL    HW2   48  -1.131  -1.035   1.163
   17SOL     OW   49   1.464   0.010   2.176
   17SOL    HW1   50   1.423  -0.068   2.128
   17SOL    HW2   51   1.536   0.050   2.118
   18SOL     OW   52  -0.138   0.071   3.727
   18SOL    HW1   53  -0.056   0.063   3.669
   18SOL    HW2   54  -0.213   0.106   3.671
   19SOL     OW   55  -1.832  -1.440   0.649
   19SOL    HW1   56  -1.760  -1.508   0.666
   19SOL    HW2   57  -1.913  -1.464   0.702
   20SOL     OW   58  -1.469  -0.613   3.002
   20SOL    HW1   59  -1.460  -0.667   2.918
   20SOL    HW2   60  -1.453  -0.517   2.982
   21SOL     OW   61  -0.568  -1.242   2.269
   21SOL    HW1   62  -0.505  -1.179   2.316
   21SOL    HW2   63  -0.522  -1.282   2.190
   22SOL     OW   64  -2.166  -1.666   1.911
   22SOL    HW1   65  -2.253  -1.661   1.959
   22SOL    HW2   66  -2.140  -1.575   1.879
   23SOL     OW   67  -1.693  -0.081   1.947
   23SOL    HW1   68  -1.644  -0.152   1.895
   23SOL    HW2   69  -1.780  -0.118   1.979
   24SOL     OW   70  -1.185  -0.379   2.599
   24SOL    HW1   71  -1.166  -0.459   2.657
   24SOL    HW2   72  -1.121  -0.381   2.521
   25SOL     OW   73  -1.710   0.041   1.668
   25SOL    HW1   74  -1.716   0.023   1.766
   25SOL    HW2   75  -1.796   0.084   1.637
   26SOL     OW   76  -0.912  -0.780   1.315
   26SOL    HW1   77  -0.828  -0.835   1.310
   26SOL    HW2   78  -0.983  -0.822   1.259
   27SOL     OW   79  -1.005  -0.037   3.349
   27SOL    HW1   80  -0.988   0.048   3.399
   27SOL    HW2   81  -0.990  -0.115   3.411
   28SOL     OW   82  -0.029  -1.179   3.544
   28SOL    HW1   83  -0.009  -1.091   3.588
   28SOL    HW2   84   0.035  -1.248   3.575
   29SOL     OW   85  -1.485  -1.059   2.417
   29SOL    HW1   86  -1.547  -1.031   2.490
   29SOL    HW2   87  -1.504  -1.005   2.334
   30SOL     OW   88  -2.406  -0.978   2.487
   30SOL    HW1   89  -2.359  -0.932   2.411
   30SOL    HW2   90  -2.499  -1.002   2.458
   31SOL     OW   91   0.745   0.551   1.384
   31SOL    HW1   92   0.667   0.514   1.436
   31SOL    HW2   93   0.717   0.639   1.343
   32SOL     OW   94  -1.377  -0.224   1.510
   32SOL    HW1   95  -1.301  -0.234   1.445
   32SOL    HW2   96  -1.345  -0.252   1.600
   33SOL     OW   97  -1.170   0.460   1.518
   33SOL    HW1   98  -1.201   0.377   1.566
   33SOL    HW2   99  -1.072   0.473   1.538
   34SOL     OW  100   0.322  -0.135   0.601
   34SOL    HW1  101   0.266  -0.169   0.677
   34SOL    HW2  102   0.413  -0.113   0.635
   35SOL     OW  103  -0.508   0.720   1.273
   35SOL    HW1  104  -0.454   0.647   1.315
   35SOL    HW2  105  -0.455   0.764   1.200
   36SOL     OW  106  -1.972   0.131   1.542
   36SOL    HW1  107  -2.031   0.066   1.590
   36SOL    HW2  108  -2.017   0.220   1.536
   37SOL     OW  109  -1.532  -1.190   0.346
   37SOL    HW1  110  -1.468  -1.116   0.321
   37SOL    HW2  111  -1.590  -1.160   0.421
   38SOL     OW  112  -1.727  -0.647   2.205
   38SOL    HW1  113  -1.789  -0.702   2.261
   38SOL    HW2  114  -1.725  -0.553   2.239
   39SOL     OW  115  -2.280  -0.957   1.706
   39SOL    HW1  116  -2.329  -0.981   1.790
   39SOL    HW2  117  -2.234  -0.869   1.720
   40SOL     OW  118  -1.762   0.133   1.028
   40SOL    HW1  119  -1.799   0.084   1.108
   40SOL    HW2  120  -1.788   0.086   0.944
   41SOL     OW  121  -1.418  -0.802   0.427
   41SOL    HW1  122  -1.385  -0.869   0.359
   41SOL    HW2  123  -1.419  -0.847   0.517
   42SOL     OW  124   0.306  -1.081   1.360
   42SOL    HW1  125   0.258  -1.083   1.447
   42SOL    HW2  126   0.240  -1.097   1.286
   43SOL     OW  127  -2.159  -1.200   1.553
   43SOL    HW1  128  -2.228  -1.254   1.504
   43SOL    HW2  129  -2.203  -1.118   1.591
   44SOL     OW  130  -0.658  -1.566   1.662
   44SOL    HW1  131  -0.742  -1.513   1.655
   44SOL    HW2  132  -0.641  -1.591   1.757
   45SOL     OW  133  -0.084   0.587   2.598
   45SOL    HW1  134  -0.178   0.560   2.624
   45SOL    HW2  135  -0.030   0.596   2.682
   46SOL     OW  136  -1.824  -0.495   1.966
   46SOL    HW1  137  -1.810  -0.526   1.872
   46SOL    HW2  138  -1.785  -0.561   2.030
   47SOL     OW  139   0.968  -1.005   3.104
   47SOL    HW1  140   1.040  -0.977   3.169
   47SOL    HW2  141   1.002  -1.081   3.049
   48SOL     OW  142  -0.952  -1.230   2.360
   48SOL    HW1  143  -0.989  -1.165   2.293
   48SOL    HW2  144  -0.854  -1.242   2.344
   49SOL     OW  145  -0.958   0.378   0.535
   49SOL    HW1  146  -0.970   0.459   0.477
   49SOL    HW2  147  -0.951   0.297   0.478
   50SOL     OW  148  -1.253  -0.756   2.115
   50SOL    HW1  149  -1.195  -0.830   2.150
   50SOL    HW2  150  -1.198  -0.672   2.111
   51SOL     OW  151  -1.379  -0.745   1.848
   51SOL    HW1  152  -1.475  -0.772   1.856
   51SOL    HW2  153  -1.338  -0.745   1.940
   52SOL     OW  154  -0.005   0.567   0.709
   52SOL    HW1  155   0.092   0.572   0.733
   52SOL    HW2  156  -0.015   0.580   0.610
   53SOL     OW  157  -2.705  -0.470   2.016
   53SOL    HW1  158  -2.742  -0.548   1.964
   53SOL    HW2  159  -2.770  -0.395   2.014
   54SOL     OW  160  -2.450  -0.209   1.852
   54SOL    HW1  161  -2.367  -0.219   1.796
   54SOL    HW2  162  -2.469  -0.295   1.899
   55SOL     OW  163   0.855  -0.782   2.943
   55SOL    HW1  164   0.884  -0.857   3.002
   55SOL    HW2  165   0.908  -0.787   2.858
   56SOL     OW  166  -0.082  -0.560   0.244
   56SOL    HW1  167  -0.107  -0.657   0.236
   56SOL    HW2  168  -0.154  -0.512   0.294
   57SOL     OW  169  -0.767   0.520   2.724
   57SOL    HW1  170  -0.682   0.476   2.755
   57SOL    HW2  171  -0.771   0.612   2.763
   58SOL     OW  172  -1.612  -1.635   0.705
   58SOL    HW1  173  -1.540  -1.566   0.700
   58SOL    HW2  174  -1.571  -1.726   0.708
   59SOL     OW  175  -2.038  -0.511   2.374
   59SOL    HW1  176  -1.996  -0.601   2.359
   59SOL    HW2  177  -2.105  -0.520   2.448
   60SOL     OW  178   0.255  -0.165   3.101
   60SOL    HW1  179   0.349  -0.133   3.114
   60SOL    HW2  180   0.210  -0.106   3.034
   61SOL     OW  181  -0.669   0.886   1.778
   61SOL    HW1  182  -0.681   0.857   1.682
   61SOL    HW2  183  -0.759   0.905   1.818
   62SOL     OW  184   0.798  -0.666   0.844
   62SOL    HW1  185   0.746  -0.599   0.898
   62SOL    HW2  186   0.778  -0.758   0.879
   63SOL     OW  187  -1.657  -0.156   1.459
   63SOL    HW1  188  -1.674  -0.089   1.532
   63SOL    HW2  189  -1.561  -0.185   1.464
   64SOL     OW  190  -0.143  -1.527   1.924
   64SOL    HW1  191  -0.196  -1.546   2.007
   64SOL    HW2  192  -0.202  -1.535   1.844
   65SOL     OW  193  -1.185  -0.426   3.257
   65SOL    HW1  194  -1.220  -0.332   3.253
   65SOL    HW2  195  -1.209  -0.467   3.345
   66SOL     OW  196  -1.293  -0.592   0.020
   66SOL    HW1  197  -1.288  -0.513  -0.041
   66SOL    HW2  198  -1.294  -0.676  -0.035
   67SOL     OW  199  -0.038   0.858   1.988
   67SOL    HW1  200   0.019   0.837   1.909
   67SOL    HW2  201  -0.096   0.778   2.009
   68SOL     OW  202   0.334   0.079   2.930
   68SOL    HW1  203   0.281   0.148   2.980
   68SOL    HW2  204   0.413   0.052   2.984
   69SOL     OW  205   0.219   0.529   1.093
   69SOL    HW1  206   0.194   0.471   1.170
   69SOL    HW2  207   0.168   0.615   1.098
   70SOL     OW  208  -0.102  -0.371   4.353
   70SOL    HW1  209  -0.076  -0.464   4.328
   70SOL    HW2  210  -0.121  -0.368   4.452
   71SOL     OW  211  -1.293  -0.550   0.318
   71SOL    HW1  212  -1.341  -0.628   0.359
   71SOL    HW2  213  -1.301  -0.556   0.218
   72SOL     OW  214  -0.685   0.260   3.036
   72SOL    HW1  215  -0.639   0.235   3.121
   72SOL    HW2  216  -0.621   0.308   2.976
   73SOL     OW  217   0.167  -0.435   3.131
   73SOL    HW1  218   0.201  -0.474   3.216
   73SOL    HW2  219   0.203  -0.342   3.120
   74SOL     OW  220   0.590  -0.073   0.710
   74SOL    HW1  221   0.657  -0.106   0.777
   74SOL    HW2  222   0.602   0.026   0.697
   75SOL     OW  223  -1.744  -1.163   0.570
   75SOL    HW1  224  -1.773  -1.259   0.581
   75SOL    HW2  225  -1.767  -1.113   0.653
   76SOL     OW  226  -2.681  -0.755   1.251
   76SOL    HW1  227  -2.643  -0.663   1.267
   76SOL    HW2  228  -2.697  -0.766   1.153
   77SOL     OW  229   1.078  -0.887   1.434
   77SOL    HW1  230   1.030  -0.802   1.409
   77SOL    HW2  231   1.041  -0.921   1.520
   78SOL     OW  232  -0.689   0.560   1.085
   78SOL    HW1  233  -0.658   0.557   0.990
   78SOL    HW2  234  -0.626   0.615   1.140
   79SOL     OW  235  -1.340  -0.173   2.742
   79SOL    HW1  236  -1.288  -0.242   2.691
   79SOL    HW2  237  -1.437  -0.185   2.724
   80SOL     OW  238  -0.211  -1.245   2.579
   80SOL    HW1  239  -0.143  -1.175   2.557
   80SOL    HW2  240  -0.294  -1.224   2.528
   81SOL     OW  241   0.760  -1.392   3.304
   81SOL    HW1  242   0.704  -1.468   3.338
   81SOL    HW2  243   0.806  -1.420   3.219
   82SOL     OW  244  -0.573  -1.621   1.949
   82SOL    HW1  245  -0.528  -1.534   1.970
   82SOL    HW2  246  -0.594  -1.669   2.034
   83SOL     OW  247  -2.447  -0.514   2.162
   83SOL    HW1  248  -2.469  -0.519   2.259
   83SOL    HW2  249  -2.531  -0.492   2.111
   84SOL     OW  250  -2.049  -2.069   1.721
   84SOL    HW1  251  -1.982  -2.045   1.650
   84SOL    HW2  252  -2.095  -2.153   1.694
   85SOL     OW  253   0.838  -1.076   2.737
   85SOL    HW1  254   0.890  -1.158   2.761
   85SOL    HW2  255   0.841  -1.064   2.637
   86SOL     OW  256  -2.233  -0.670   2.549
   86SOL    HW1  257  -2.246  -0.722   2.465
   86SOL    HW2  258  -2.288  -0.711   2.622
   87SOL     OW  259   0.385  -1.470   2.847
   87SOL    HW1  260   0.314  -1.480   2.777
   87SOL    HW2  261   0.407  -1.372   2.858
   88SOL     OW  262   1.218  -0.388   3.268
   88SOL    HW1  263   1.289  -0.380   3.339
   88SOL    HW2  264   1.263  -0.401   3.179
   89SOL     OW  265  -0.290  -1.132   2.861
   89SOL    HW1  266  -0.217  -1.161   2.923
   89SOL    HW2  267  -0.276  -1.176   2.772
   90SOL     OW  268  -0.805   0.295   2.368
   90SOL    HW1  269  -0.886   0.292   2.310
   90SOL    HW2  270  -0.782   0.201   2.396
   91SOL     OW  271   0.175   0.252   3.124
   91SOL    HW1  272   0.107   0.180   3.106
   91SOL    HW2  273   0.127   0.333   3.160
   92SOL     OW  274   0.904  -1.264   3.535
   92SOL    HW1  275   0.973  -1.326   3.574
   92SOL    HW2  276   0.863  -1.306   3.455
   93SOL     OW  277  -2.190  -0.345   2.164
   93SOL    HW1  278  -2.138  -0.387   2.238
   93SOL    HW2  279  -2.285  -0.379   2.167
   94SOL     OW  280  -0.688   0.808   1.492
   94SOL    HW1  281  -0.781   0.798   1.455
   94SOL    HW2  282  -0.623   0.795   1.416
   95SOL     OW  283   1.192   0.237   1.640
   95SOL    HW1  284   1.205   0.266   1.735
   95SOL    HW2  285   1.261   0.167   1.618
   96SOL     OW  286  -1.233   0.732   1.423
   96SOL    HW1  287  -1.224   0.637   1.455
   96SOL    HW2  288  -1.326   0.765   1.444
   97SOL     OW  289   0.528  -1.170   1.641
   97SOL    HW1  290   0.611  -1.199   1.592
   97SOL    HW2  291   0.458  -1.144   1.575
   98SOL     OW  292  -1.001  -1.163   2.856
   98SOL    HW1  293  -0.964  -1.242   2.905
   98SOL    HW2  294  -1.045  -1.195   2.771
   99SOL     OW  295   0.544  -0.238   3.809
   99SOL    HW1  296   0.535  -0.280   3.899
   99SOL    HW2  297   0.631  -0.189   3.803
  100SOL     OW  298   1.187   0.143   2.669
  100SOL    HW1  299   1.132   0.062   2.691
  100SOL    HW2  300   1.282   0.126   2.693
  101SOL     OW  301  -1.096  -1.315   3.712
  101SOL    HW1  302  -1.163  -1.330   3.784
  101SOL    HW2  303  -1.139  -1.333   3.623
  102SOL     OW  304  -1.183  -0.785   3.553
  102SOL    HW1  305  -1.119  -0.714   3.521
  102SOL    HW2  306  -1.176  -0.864   3.491
  103SOL     OW  307  -1.267  -1.052   2.962
  103SOL    HW1  308  -1.183  -1.105   2.950
  103SOL    HW2  309  -1.310  -1.076   3.049
  104SOL     OW  310   1.473   0.056   2.727
  104SOL    HW1  311   1.521   0.040   2.641
  104SOL    HW2  312   1.532   0.108   2.788
  105SOL     OW  313   0.245  -0.878   0.729
  105SOL    HW1  314   0.196  -0.791   0.723
  105SOL    HW2  315   0.192  -0.942   0.786
  106SOL     OW  316   0.156  -1.518   1.917
  106SOL    HW1  317   0.190  -1.612   1.922
  106SOL    HW2  318   0.056  -1.519   1.920
  107SOL     OW  319  -1.384  -1.085   3.236
  107SOL    HW1  320  -1.297  -1.067   3.283
  107SOL    HW2  321  -1.437  -0.999   3.234
  108SOL     OW  322  -1.592  -0.138   2.373
  108SOL    HW1  323  -1.659  -0.209   2.351
  108SOL    HW2  324  -1.514  -0.180   2.420
  109SOL     OW  325   0.842  -1.092   2.433
  109SOL    HW1  326   0.790  -1.167   2.392
  109SOL    HW2  327   0.888  -1.041   2.360
  110SOL     OW  328  -0.350   0.857   1.060
  110SOL    HW1  329  -0.256   0.827   1.081
  110SOL    HW2  330  -0.348   0.916   0.979
  111SOL     OW  331  -1.852   0.004   1.294
  111SOL    HW1  332  -1.784  -0.061   1.331
  111SOL    HW2  333  -1.895   0.052   1.370
  112SOL     OW  334   0.185  -0.498   0.366
  112SOL    HW1  335   0.191  -0.561   0.443
  112SOL    HW2  336   0.102  -0.518   0.314
  113SOL     OW  337  -0.169  -0.079   4.325
  113SOL    HW1  338  -0.145  -0.175   4.337
  113SOL    HW2  339  -0.188  -0.038   4.415
  114SOL     OW  340  -1.526  -0.866   2.183
  114SOL    HW1  341  -1.597  -0.795   2.176
  114SOL    HW2  342  -1.437  -0.826   2.157
  115SOL     OW  343  -0.993   0.614   1.845
  115SOL    HW1  344  -0.958   0.586   1.756
  115SOL    HW2  345  -1.060   0.547   1.878
  116SOL     OW  346  -1.759  -0.277   0.674
  116SOL    HW1  347  -1.667  -0.297   0.641
  116SOL    HW2  348  -1.813  -0.362   0.674
  117SOL     OW  349  -1.935  -0.233   2.032
  117SOL    HW1  350  -1.907  -0.322   1.996
  117SOL    HW2  351  -2.031  -0.239   2.062
  118SOL     OW  352  -0.942   0.747   1.350
  118SOL    HW1  353  -1.038   0.751   1.376
  118SOL    HW2  354  -0.935   0.714   1.256
  119SOL     OW  355  -1.265  -0.139   3.237
  119SOL    HW1  356  -1.184  -0.098   3.280
  119SOL    HW2  357  -1.282  -0.093   3.150
  120SOL     OW  358  -0.790  -1.348   3.741
  120SOL    HW1  359  -0.889  -1.360   3.737
  120SOL    HW2  360  -0.767  -1.254   3.713
  121SOL     OW  361  -0.189   0.611   2.062
  121SOL    HW1  362  -0.262   0.554   2.025
  121SOL    HW2  363  -0.151   0.567   2.145
  122SOL     OW  364  -1.329  -0.297   0.473
  122SOL    HW1  365  -1.314  -0.388   0.434
  122SOL    HW2  366  -1.346  -0.233   0.397
  123SOL     OW  367  -1.788  -0.356   2.283
  123SOL    HW1  368  -1.870  -0.389   2.330
  123SOL    HW2  369  -1.816  -0.306   2.201
  124SOL     OW  370   0.238  -0.191   3.754
  124SOL    HW1  371   0.336  -0.195   3.771
  124SOL    HW2  372   0.216  -0.106   3.706
  125SOL     OW  373   0.294  -0.219   0.312
  125SOL    HW1  374   0.245  -0.306   0.317
  125SOL    HW2  375   0.292  -0.175   0.402
  126SOL     OW  376  -1.503  -0.811   3.223
  126SOL    HW1  377  -1.488  -0.748   3.147
  126SOL    HW2  378  -1.556  -0.765   3.295
  127SOL     OW  379  -1.569   0.082   2.169
  127SOL    HW1  380  -1.613   0.040   2.089
  127SOL    HW2  381  -1.578   0.020   2.247
  128SOL     OW  382  -0.160  -0.341   4.644
  128SOL    HW1  383  -0.093  -0.312   4.712
  128SOL    HW2  384  -0.244  -0.370   4.691
  129SOL     OW  385  -1.131  -1.249   2.600
  129SOL    HW1  386  -1.070  -1.250   2.519
  129SOL    HW2  387  -1.226  -1.246   2.569
  130SOL     OW  388  -1.280  -0.744   3.831
  130SOL    HW1  389  -1.246  -0.763   3.738
  130SOL    HW2  390  -1.379  -0.738   3.829
     5.712     5.712     5.712
