; ITP file created by ByteFF-ML, 2026-02-21 08:15:42.248124

[ atomtypes ]
;name           bonded.type        at.num        mass        charge   ptype           sigma         epsilon
 c0bf                                   6      0.0000       0.00000       A     3.31371e-01     4.10884e-01
 c1bf                                   6      0.0000       0.00000       A     3.31561e-01     4.12921e-01
 c2bf                                   6      0.0000       0.00000       A     3.39871e-01     4.51764e-01
 c3bf                                   6      0.0000       0.00000       A     3.39843e-01     4.50018e-01
 c4bf                                   6      0.0000       0.00000       A     3.39899e-01     4.51145e-01
 c5bf                                   6      0.0000       0.00000       A     3.39813e-01     4.51102e-01
 c6bf                                   6      0.0000       0.00000       A     3.39822e-01     4.51269e-01
 c7bf                                   6      0.0000       0.00000       A     3.39813e-01     4.51102e-01
 c8bf                                   6      0.0000       0.00000       A     3.39899e-01     4.51145e-01
 c9bf                                   6      0.0000       0.00000       A     3.31424e-01     4.12648e-01
 c10bf                                  6      0.0000       0.00000       A     3.31504e-01     4.12388e-01
 c11bf                                  6      0.0000       0.00000       A     3.31476e-01     4.12721e-01
 c12bf                                  6      0.0000       0.00000       A     3.31440e-01     4.12969e-01
 n13bf                                  7      0.0000       0.00000       A     3.38528e-01     3.90327e-01
 c14bf                                  6      0.0000       0.00000       A     3.31242e-01     4.07848e-01
 o15bf                                  8      0.0000       0.00000       A     3.15812e-01     3.05090e-01
 c16bf                                  6      0.0000       0.00000       A     3.31473e-01     4.11778e-01
 n17bf                                  7      0.0000       0.00000       A     3.38495e-01     3.93153e-01
 n18bf                                  7      0.0000       0.00000       A     3.20544e-01     8.50135e-01
 c19bf                                  6      0.0000       0.00000       A     3.31276e-01     4.12204e-01
 n20bf                                  7      0.0000       0.00000       A     3.38544e-01     3.90368e-01
 n21bf                                  7      0.0000       0.00000       A     3.27819e-01     6.46169e-01
 c22bf                                  6      0.0000       0.00000       A     3.31424e-01     4.12595e-01
 c23bf                                  6      0.0000       0.00000       A     3.31475e-01     4.12458e-01
 h24bf                                  1      0.0000       0.00000       A     2.45287e-01     6.70062e-02
 h25bf                                  1      0.0000       0.00000       A     2.42491e-01     8.77168e-02
 h26bf                                  1      0.0000       0.00000       A     2.42491e-01     8.77168e-02
 h27bf                                  1      0.0000       0.00000       A     2.60099e-01     8.60297e-02
 h28bf                                  1      0.0000       0.00000       A     2.59920e-01     8.70145e-02
 h29bf                                  1      0.0000       0.00000       A     2.59920e-01     8.70145e-02
 h30bf                                  1      0.0000       0.00000       A     2.60020e-01     8.71182e-02
 h31bf                                  1      0.0000       0.00000       A     2.60020e-01     8.71182e-02
 h32bf                                  1      0.0000       0.00000       A     2.59998e-01     8.72507e-02
 h33bf                                  1      0.0000       0.00000       A     2.59998e-01     8.72507e-02
 h34bf                                  1      0.0000       0.00000       A     2.60020e-01     8.71182e-02
 h35bf                                  1      0.0000       0.00000       A     2.60020e-01     8.71182e-02
 h36bf                                  1      0.0000       0.00000       A     2.59920e-01     8.70145e-02
 h37bf                                  1      0.0000       0.00000       A     2.59920e-01     8.70145e-02
 cl38bf                                17      0.0000       0.00000       A     3.46779e-01     1.10516e+00
 h39bf                                  1      0.0000       0.00000       A     2.62496e-01     6.71211e-02
 h40bf                                  1      0.0000       0.00000       A     2.62517e-01     6.72679e-02
 h41bf                                  1      0.0000       0.00000       A     2.62555e-01     6.74690e-02
 h42bf                                  1      0.0000       0.00000       A     1.10794e-01     4.09966e-02
 h43bf                                  1      0.0000       0.00000       A     1.10362e-01     4.30827e-02
 h44bf                                  1      0.0000       0.00000       A     2.62434e-01     6.72009e-02

[ moleculetype ]
;name             nrexcl
 1h1r                  3

[ atoms ]
;       nr            type      resi   res      atom      cgnr      charge          mass ; qtot
         1            c0bf         1   UNL        c0         1     0.42941       12.0110 ; qtot    0.429
         2            c1bf         1   UNL        c1         2     0.41453       12.0110 ; qtot    0.844
         3            c2bf         1   UNL        c2         3     0.17436       12.0110 ; qtot    1.018
         4            c3bf         1   UNL        c3         4    -0.07501       12.0110 ; qtot    0.943
         5            c4bf         1   UNL        c4         5    -0.07113       12.0110 ; qtot    0.872
         6            c5bf         1   UNL        c5         6    -0.07455       12.0110 ; qtot    0.798
         7            c6bf         1   UNL        c6         7    -0.07619       12.0110 ; qtot    0.721
         8            c7bf         1   UNL        c7         8    -0.07455       12.0110 ; qtot    0.647
         9            c8bf         1   UNL        c8         9    -0.07113       12.0110 ; qtot    0.576
        10            c9bf         1   UNL        c9        10     0.14692       12.0110 ; qtot    0.723
        11           c10bf         1   UNL       c10        11    -0.12058       12.0110 ; qtot    0.602
        12           c11bf         1   UNL       c11        12    -0.08045       12.0110 ; qtot    0.522
        13           c12bf         1   UNL       c12        13    -0.15434       12.0110 ; qtot    0.367
        14           n13bf         1   UNL       n13        14    -0.32855       14.0070 ; qtot    0.039
        15           c14bf         1   UNL       c14        15     0.44491       12.0110 ; qtot    0.484
        16           o15bf         1   UNL       o15        16    -0.44076       15.9990 ; qtot    0.043
        17           c16bf         1   UNL       c16        17    -0.08920       12.0110 ; qtot   -0.046
        18           n17bf         1   UNL       n17        18    -0.52838       14.0070 ; qtot   -0.575
        19           n18bf         1   UNL       n18        19    -0.42790       14.0070 ; qtot   -1.003
        20           c19bf         1   UNL       c19        20     0.15819       12.0110 ; qtot   -0.844
        21           n20bf         1   UNL       n20        21    -0.24940       14.0070 ; qtot   -1.094
        22           n21bf         1   UNL       n21        22    -0.92669       14.0070 ; qtot   -2.020
        23           c22bf         1   UNL       c22        23     0.32668       12.0110 ; qtot   -1.694
        24           c23bf         1   UNL       c23        24    -0.15045       12.0110 ; qtot   -1.844
        25           h24bf         1   UNL       h24        25     0.07339        1.0080 ; qtot   -1.771
        26           h25bf         1   UNL       h25        26     0.05841        1.0080 ; qtot   -1.712
        27           h26bf         1   UNL       h26        27     0.05841        1.0080 ; qtot   -1.654
        28           h27bf         1   UNL       h27        28     0.05567        1.0080 ; qtot   -1.598
        29           h28bf         1   UNL       h28        29     0.04118        1.0080 ; qtot   -1.557
        30           h29bf         1   UNL       h29        30     0.04118        1.0080 ; qtot   -1.516
        31           h30bf         1   UNL       h30        31     0.03867        1.0080 ; qtot   -1.477
        32           h31bf         1   UNL       h31        32     0.03867        1.0080 ; qtot   -1.439
        33           h32bf         1   UNL       h32        33     0.03771        1.0080 ; qtot   -1.401
        34           h33bf         1   UNL       h33        34     0.03771        1.0080 ; qtot   -1.363
        35           h34bf         1   UNL       h34        35     0.03867        1.0080 ; qtot   -1.325
        36           h35bf         1   UNL       h35        36     0.03867        1.0080 ; qtot   -1.286
        37           h36bf         1   UNL       h36        37     0.04118        1.0080 ; qtot   -1.245
        38           h37bf         1   UNL       h37        38     0.04118        1.0080 ; qtot   -1.204
        39          cl38bf         1   UNL      cl38        39    -0.20649       35.4530 ; qtot   -1.410
        40           h39bf         1   UNL       h39        40     0.13393        1.0080 ; qtot   -1.276
        41           h40bf         1   UNL       h40        41     0.12296        1.0080 ; qtot   -1.153
        42           h41bf         1   UNL       h41        42     0.13269        1.0080 ; qtot   -1.020
        43           h42bf         1   UNL       h42        43     0.36955        1.0080 ; qtot   -0.651
        44           h43bf         1   UNL       h43        44     0.50721        1.0080 ; qtot   -0.144
        45           h44bf         1   UNL       h44        45     0.14371        1.0080 ; qtot   -0.000

[ bonds ]
;       ai        aj funct               r               k
         1        14     1        0.135836   243809.269629
         1        21     1        0.134746   273550.808691
         1        22     1        0.137692   292247.471338
         2        18     1        0.131231   401108.465723
         2        19     1        0.138733   259320.918457
         2        25     1        0.108240   334117.375293
         3         4     1        0.152692   185880.201221
         3        16     1        0.144753   167521.994653
         3        26     1        0.109334   299257.407861
         3        27     1        0.109334   299257.407861
         4         5     1        0.154313   170901.358643
         4         9     1        0.154313   170901.358643
         4        28     1        0.109742   295748.583496
         5         6     1        0.153885   180885.436304
         5        29     1        0.109603   293012.639746
         5        30     1        0.109603   293012.639746
         6         7     1        0.154006   181295.638892
         6        31     1        0.109610   292977.858203
         6        32     1        0.109610   292977.858203
         7         8     1        0.154006   181295.638892
         7        33     1        0.109630   292724.555615
         7        34     1        0.109630   292724.555615
         8         9     1        0.153885   180885.436304
         8        35     1        0.109610   292977.858203
         8        36     1        0.109610   292977.858203
         9        37     1        0.109603   293012.639746
         9        38     1        0.109603   293012.639746
        10        11     1        0.139605   298235.897949
        10        24     1        0.139303   312872.032520
        10        39     1        0.175737   147096.073877
        11        12     1        0.139816   305949.841504
        11        40     1        0.108423   326411.297168
        12        13     1        0.139450   322451.436377
        12        41     1        0.108580   321476.046484
        13        23     1        0.140847   279763.783105
        13        42     1        0.108356   325716.994238
        14        15     1        0.132634   330563.069336
        15        16     1        0.133885   301390.854590
        15        17     1        0.141155   267153.456348
        17        18     1        0.139065   235487.568408
        17        20     1        0.140928   253367.528760
        19        20     1        0.137931   267001.816992
        19        43     1        0.101110   430360.918066
        20        21     1        0.133417   339441.913672
        22        23     1        0.140139   262553.967578
        22        44     1        0.101204   417325.679346
        23        24     1        0.140783   280415.490137
        24        45     1        0.108294   327722.704346

[ angles ]
;       ai        aj        ak funct           theta             cth
         1        14        15     1      118.655899      871.733361
         1        21        20     1      112.039780      770.073959
         1        22        23     1      132.283569      363.622326
         1        22        44     1      111.613083      500.804485
         2        18        17     1      104.381546      530.233993
         2        19        20     1      106.571243      477.182276
         2        19        43     1      127.522507      351.139148
         3         4         5     1      111.137985      612.095782
         3         4         9     1      111.137985      612.095782
         3         4        28     1      106.713394      523.738214
         3        16        15     1      118.010170      527.040928
         4         3        16     1      109.104393      598.962494
         4         3        26     1      111.158119      481.750482
         4         3        27     1      111.158119      481.750482
         4         5         6     1      111.670677      620.981611
         4         5        29     1      109.463394      488.810822
         4         5        30     1      109.463394      488.810822
         4         9         8     1      111.670677      620.981611
         4         9        37     1      109.463394      488.810854
         4         9        38     1      109.463394      488.810854
         5         4         9     1      110.476418      570.964501
         5         4        28     1      108.166306      494.312282
         5         6         7     1      111.254883      628.944784
         5         6        31     1      109.653061      513.133802
         5         6        32     1      109.653061      513.133802
         6         5        29     1      109.769836      507.804718
         6         5        30     1      109.769836      507.804718
         6         7         8     1      111.105492      586.409664
         6         7        33     1      109.773476      507.912995
         6         7        34     1      109.773476      507.912995
         7         6        31     1      109.843277      500.167366
         7         6        32     1      109.843277      500.167366
         7         8         9     1      111.254883      628.944784
         7         8        35     1      109.843277      500.167366
         7         8        36     1      109.843277      500.167366
         8         7        33     1      109.773476      507.912995
         8         7        34     1      109.773476      507.912995
         8         9        37     1      109.769836      507.804718
         8         9        38     1      109.769836      507.804718
         9         4        28     1      108.166306      494.312282
         9         8        35     1      109.653061      513.133802
         9         8        36     1      109.653061      513.133802
        10        11        12     1      118.237686      603.986537
        10        11        40     1      120.491226      411.147940
        10        24        23     1      119.194656      746.041816
        10        24        45     1      120.470947      363.458026
        11        10        24     1      122.167664      626.267921
        11        10        39     1      119.298874      363.586702
        11        12        13     1      121.301437      683.886024
        11        12        41     1      119.360184      434.533835
        12        11        40     1      121.366226      422.832412
        12        13        23     1      119.870567      761.615558
        12        13        42     1      120.587624      396.184949
        13        12        41     1      119.334518      430.746267
        13        23        22     1      120.828079      560.843442
        13        23        24     1      119.300697      595.380212
        14         1        21     1      126.748802      572.036740
        14         1        22     1      115.323990      545.491745
        14        15        16     1      119.705566      568.341712
        14        15        17     1      120.071701      677.955988
        15        17        18     1      134.552612      391.243902
        15        17        20     1      114.503098      858.921138
        16         3        26     1      108.039749      467.246936
        16         3        27     1      108.039749      467.246936
        16        15        17     1      119.857567      387.199207
        17        20        19     1      104.960571      167.360000
        17        20        21     1      126.952988      649.919561
        18         2        19     1      113.290321      253.286212
        18         2        25     1      125.315651      307.732096
        18        17        20     1      110.880020      174.657229
        19         2        25     1      121.547646      428.093951
        19        20        21     1      128.406540      555.174459
        20        19        43     1      125.677979      421.598970
        21         1        22     1      116.717545      525.928500
        22        23        24     1      119.920090      549.257767
        23        13        42     1      119.685989      439.915174
        23        22        44     1      115.836624      455.438353
        23        24        45     1      120.489380      424.587386
        24        10        39     1      118.670517      380.169160
        26         3        27     1      108.659584      341.810634
        29         5        30     1      106.333191      362.772834
        31         6        32     1      106.314087      364.477883
        33         7        34     1      106.405663      365.992170
        35         8        36     1      106.314087      364.477915
        37         9        38     1      106.333191      362.772834

[ dihedrals ] ; propers for gromacs 4.5 or higher, use funct 9
;       ai        aj        ak        al funct           phase               k        pn
         1        14        15        16     9        0.000000        0.863442         1
         1        14        15        16     9      180.000000       20.127384         2
         1        14        15        16     9        0.000000        0.469353         3
         1        14        15        16     9      180.000000       -0.568457         4
         1        14        15        17     9        0.000000       -0.352130         1
         1        14        15        17     9      180.000000       17.947189         2
         1        14        15        17     9        0.000000       -0.802735         3
         1        14        15        17     9      180.000000       -0.477479         4
         1        21        20        17     9        0.000000       -1.173084         1
         1        21        20        17     9      180.000000       17.088887         2
         1        21        20        17     9        0.000000       -1.418214         3
         1        21        20        17     9      180.000000       -0.376701         4
         1        21        20        19     9        0.000000        0.376802         1
         1        21        20        19     9      180.000000       18.196932         2
         1        21        20        19     9        0.000000       -0.112690         3
         1        21        20        19     9      180.000000       -0.671257         4
         1        22        23        13     9        0.000000        0.415187         1
         1        22        23        13     9      180.000000        3.624482         2
         1        22        23        13     9        0.000000        0.027503         3
         1        22        23        13     9      180.000000        0.331023         4
         1        22        23        24     9        0.000000        0.090298         1
         1        22        23        24     9      180.000000        3.742321         2
         1        22        23        24     9        0.000000       -0.078093         3
         1        22        23        24     9      180.000000        0.355417         4
         2        18        17        15     9        0.000000        0.966745         1
         2        18        17        15     9      180.000000        4.563655         2
         2        18        17        15     9        0.000000       -0.088105         3
         2        18        17        15     9      180.000000        0.411865         4
         2        18        17        20     9        0.000000       -0.418511         1
         2        18        17        20     9      180.000000       25.957428         2
         2        18        17        20     9        0.000000       -5.696975         3
         2        18        17        20     9      180.000000        0.330849         4
         2        19        20        17     9        0.000000        0.035604         1
         2        19        20        17     9      180.000000       20.967455         2
         2        19        20        17     9        0.000000       -6.696193         3
         2        19        20        17     9      180.000000       -0.916467         4
         2        19        20        21     9        0.000000        1.482139         1
         2        19        20        21     9      180.000000        5.193138         2
         2        19        20        21     9        0.000000        0.440334         3
         2        19        20        21     9      180.000000       -0.164172         4
         3         4         5         6     9        0.000000       -0.197301         1
         3         4         5         6     9      180.000000        0.178339         2
         3         4         5         6     9        0.000000        0.213391         3
         3         4         5         6     9      180.000000        0.027667         4
         3         4         5        29     9        0.000000       -0.026112         1
         3         4         5        29     9      180.000000        0.018480         2
         3         4         5        29     9        0.000000        0.297345         3
         3         4         5        29     9      180.000000       -0.011127         4
         3         4         5        30     9        0.000000       -0.026112         1
         3         4         5        30     9      180.000000        0.018480         2
         3         4         5        30     9        0.000000        0.297345         3
         3         4         5        30     9      180.000000       -0.011127         4
         3         4         9         8     9        0.000000       -0.197301         1
         3         4         9         8     9      180.000000        0.178339         2
         3         4         9         8     9        0.000000        0.213391         3
         3         4         9         8     9      180.000000        0.027667         4
         3         4         9        37     9        0.000000       -0.026113         1
         3         4         9        37     9      180.000000        0.018480         2
         3         4         9        37     9        0.000000        0.297345         3
         3         4         9        37     9      180.000000       -0.011127         4
         3         4         9        38     9        0.000000       -0.026113         1
         3         4         9        38     9      180.000000        0.018480         2
         3         4         9        38     9        0.000000        0.297345         3
         3         4         9        38     9      180.000000       -0.011127         4
         3        16        15        14     9        0.000000       -2.205326         1
         3        16        15        14     9      180.000000        9.019684         2
         3        16        15        14     9        0.000000       -0.068592         3
         3        16        15        14     9      180.000000        0.122366         4
         3        16        15        17     9        0.000000        4.488848         1
         3        16        15        17     9      180.000000        7.017319         2
         3        16        15        17     9        0.000000        0.891880         3
         3        16        15        17     9      180.000000       -0.044605         4
         4         3        16        15     9        0.000000       -2.608944         1
         4         3        16        15     9      180.000000        0.244735         2
         4         3        16        15     9        0.000000        0.118435         3
         4         3        16        15     9      180.000000        0.092588         4
         4         5         6         7     9        0.000000        0.862075         1
         4         5         6         7     9      180.000000       -1.609407         2
         4         5         6         7     9        0.000000        0.346945         3
         4         5         6         7     9      180.000000       -0.018399         4
         4         5         6        31     9        0.000000       -0.047786         1
         4         5         6        31     9      180.000000        0.059114         2
         4         5         6        31     9        0.000000        0.287767         3
         4         5         6        31     9      180.000000       -0.004900         4
         4         5         6        32     9        0.000000       -0.047786         1
         4         5         6        32     9      180.000000        0.059114         2
         4         5         6        32     9        0.000000        0.287767         3
         4         5         6        32     9      180.000000       -0.004900         4
         4         9         8         7     9        0.000000        0.862075         1
         4         9         8         7     9      180.000000       -1.609407         2
         4         9         8         7     9        0.000000        0.346945         3
         4         9         8         7     9      180.000000       -0.018399         4
         4         9         8        35     9        0.000000       -0.047786         1
         4         9         8        35     9      180.000000        0.059114         2
         4         9         8        35     9        0.000000        0.287767         3
         4         9         8        35     9      180.000000       -0.004900         4
         4         9         8        36     9        0.000000       -0.047786         1
         4         9         8        36     9      180.000000        0.059114         2
         4         9         8        36     9        0.000000        0.287767         3
         4         9         8        36     9      180.000000       -0.004900         4
         5         4         3        16     9        0.000000       -0.513019         1
         5         4         3        16     9      180.000000        0.098862         2
         5         4         3        16     9        0.000000        0.549427         3
         5         4         3        16     9      180.000000        0.006330         4
         5         4         3        26     9        0.000000        0.003642         1
         5         4         3        26     9      180.000000       -0.024774         2
         5         4         3        26     9        0.000000        0.646712         3
         5         4         3        26     9      180.000000        0.019975         4
         5         4         3        27     9        0.000000        0.003642         1
         5         4         3        27     9      180.000000       -0.024774         2
         5         4         3        27     9        0.000000        0.646712         3
         5         4         3        27     9      180.000000        0.019975         4
         5         4         9         8     9        0.000000        1.581014         1
         5         4         9         8     9      180.000000       -1.652676         2
         5         4         9         8     9        0.000000        0.266059         3
         5         4         9         8     9      180.000000       -0.075974         4
         5         4         9        37     9        0.000000       -0.048460         1
         5         4         9        37     9      180.000000        0.037258         2
         5         4         9        37     9        0.000000        0.325609         3
         5         4         9        37     9      180.000000        0.003181         4
         5         4         9        38     9        0.000000       -0.048460         1
         5         4         9        38     9      180.000000        0.037258         2
         5         4         9        38     9        0.000000        0.325609         3
         5         4         9        38     9      180.000000        0.003181         4
         5         6         7         8     9        0.000000        0.208289         1
         5         6         7         8     9      180.000000       -0.946731         2
         5         6         7         8     9        0.000000        0.403240         3
         5         6         7         8     9      180.000000       -0.064174         4
         5         6         7        33     9        0.000000       -0.024377         1
         5         6         7        33     9      180.000000        0.026478         2
         5         6         7        33     9        0.000000        0.353064         3
         5         6         7        33     9      180.000000        0.005397         4
         5         6         7        34     9        0.000000       -0.024377         1
         5         6         7        34     9      180.000000        0.026478         2
         5         6         7        34     9        0.000000        0.353064         3
         5         6         7        34     9      180.000000        0.005397         4
         6         5         4         9     9        0.000000        1.581014         1
         6         5         4         9     9      180.000000       -1.652676         2
         6         5         4         9     9        0.000000        0.266059         3
         6         5         4         9     9      180.000000       -0.075974         4
         6         5         4        28     9        0.000000       -0.629608         1
         6         5         4        28     9      180.000000        0.100159         2
         6         5         4        28     9        0.000000        0.248449         3
         6         5         4        28     9      180.000000        0.009530         4
         6         7         8         9     9        0.000000        0.208289         1
         6         7         8         9     9      180.000000       -0.946731         2
         6         7         8         9     9        0.000000        0.403240         3
         6         7         8         9     9      180.000000       -0.064174         4
         6         7         8        35     9        0.000000       -0.034385         1
         6         7         8        35     9      180.000000        0.026514         2
         6         7         8        35     9        0.000000        0.317647         3
         6         7         8        35     9      180.000000       -0.000110         4
         6         7         8        36     9        0.000000       -0.034385         1
         6         7         8        36     9      180.000000        0.026514         2
         6         7         8        36     9        0.000000        0.317647         3
         6         7         8        36     9      180.000000       -0.000110         4
         7         6         5        29     9        0.000000       -0.028017         1
         7         6         5        29     9      180.000000        0.042440         2
         7         6         5        29     9        0.000000        0.321603         3
         7         6         5        29     9      180.000000       -0.000827         4
         7         6         5        30     9        0.000000       -0.028017         1
         7         6         5        30     9      180.000000        0.042440         2
         7         6         5        30     9        0.000000        0.321603         3
         7         6         5        30     9      180.000000       -0.000827         4
         7         8         9        37     9        0.000000       -0.028017         1
         7         8         9        37     9      180.000000        0.042440         2
         7         8         9        37     9        0.000000        0.321603         3
         7         8         9        37     9      180.000000       -0.000827         4
         7         8         9        38     9        0.000000       -0.028017         1
         7         8         9        38     9      180.000000        0.042440         2
         7         8         9        38     9        0.000000        0.321603         3
         7         8         9        38     9      180.000000       -0.000827         4
         8         7         6        31     9        0.000000       -0.034385         1
         8         7         6        31     9      180.000000        0.026514         2
         8         7         6        31     9        0.000000        0.317647         3
         8         7         6        31     9      180.000000       -0.000110         4
         8         7         6        32     9        0.000000       -0.034385         1
         8         7         6        32     9      180.000000        0.026514         2
         8         7         6        32     9        0.000000        0.317647         3
         8         7         6        32     9      180.000000       -0.000110         4
         8         9         4        28     9        0.000000       -0.629608         1
         8         9         4        28     9      180.000000        0.100159         2
         8         9         4        28     9        0.000000        0.248449         3
         8         9         4        28     9      180.000000        0.009530         4
         9         4         3        16     9        0.000000       -0.513019         1
         9         4         3        16     9      180.000000        0.098862         2
         9         4         3        16     9        0.000000        0.549427         3
         9         4         3        16     9      180.000000        0.006330         4
         9         4         3        26     9        0.000000        0.003642         1
         9         4         3        26     9      180.000000       -0.024774         2
         9         4         3        26     9        0.000000        0.646712         3
         9         4         3        26     9      180.000000        0.019975         4
         9         4         3        27     9        0.000000        0.003642         1
         9         4         3        27     9      180.000000       -0.024774         2
         9         4         3        27     9        0.000000        0.646712         3
         9         4         3        27     9      180.000000        0.019975         4
         9         4         5        29     9        0.000000       -0.048460         1
         9         4         5        29     9      180.000000        0.037258         2
         9         4         5        29     9        0.000000        0.325609         3
         9         4         5        29     9      180.000000        0.003181         4
         9         4         5        30     9        0.000000       -0.048460         1
         9         4         5        30     9      180.000000        0.037258         2
         9         4         5        30     9        0.000000        0.325609         3
         9         4         5        30     9      180.000000        0.003181         4
         9         8         7        33     9        0.000000       -0.024377         1
         9         8         7        33     9      180.000000        0.026478         2
         9         8         7        33     9        0.000000        0.353064         3
         9         8         7        33     9      180.000000        0.005397         4
         9         8         7        34     9        0.000000       -0.024377         1
         9         8         7        34     9      180.000000        0.026478         2
         9         8         7        34     9        0.000000        0.353064         3
         9         8         7        34     9      180.000000        0.005397         4
        10        11        12        13     9        0.000000       -0.010860         1
        10        11        12        13     9      180.000000       18.374648         2
        10        11        12        13     9        0.000000       -1.529286         3
        10        11        12        13     9      180.000000       -0.416171         4
        10        11        12        41     9        0.000000        0.049612         1
        10        11        12        41     9      180.000000       14.414975         2
        10        11        12        41     9        0.000000       -0.570127         3
        10        11        12        41     9      180.000000        0.097905         4
        10        24        23        13     9        0.000000       -0.088056         1
        10        24        23        13     9      180.000000       16.178640         2
        10        24        23        13     9        0.000000       -1.143473         3
        10        24        23        13     9      180.000000       -0.266801         4
        10        24        23        22     9        0.000000        0.092210         1
        10        24        23        22     9      180.000000       16.583277         2
        10        24        23        22     9        0.000000        0.028418         3
        10        24        23        22     9      180.000000       -0.428319         4
        11        10        24        23     9        0.000000        0.017357         1
        11        10        24        23     9      180.000000       17.201140         2
        11        10        24        23     9        0.000000       -1.290563         3
        11        10        24        23     9      180.000000       -0.369197         4
        11        10        24        45     9        0.000000        0.034962         1
        11        10        24        45     9      180.000000       13.537011         2
        11        10        24        45     9        0.000000       -0.556849         3
        11        10        24        45     9      180.000000        0.131322         4
        11        12        13        23     9        0.000000        0.004565         1
        11        12        13        23     9      180.000000       18.504580         2
        11        12        13        23     9        0.000000       -1.619734         3
        11        12        13        23     9      180.000000       -0.468338         4
        11        12        13        42     9        0.000000        0.074999         1
        11        12        13        42     9      180.000000       14.913238         2
        11        12        13        42     9        0.000000       -0.649158         3
        11        12        13        42     9      180.000000        0.108976         4
        12        11        10        24     9        0.000000       -0.076196         1
        12        11        10        24     9      180.000000       17.763807         2
        12        11        10        24     9        0.000000       -1.277405         3
        12        11        10        24     9      180.000000       -0.414087         4
        12        11        10        39     9        0.000000        0.465612         1
        12        11        10        39     9      180.000000       19.503329         2
        12        11        10        39     9        0.000000        0.388746         3
        12        11        10        39     9      180.000000       -0.609665         4
        12        13        23        22     9        0.000000        0.212464         1
        12        13        23        22     9      180.000000       17.055146         2
        12        13        23        22     9        0.000000        0.038082         3
        12        13        23        22     9      180.000000       -0.321329         4
        12        13        23        24     9        0.000000        0.063175         1
        12        13        23        24     9      180.000000       16.599885         2
        12        13        23        24     9        0.000000       -1.038548         3
        12        13        23        24     9      180.000000       -0.226311         4
        13        12        11        40     9        0.000000        0.109118         1
        13        12        11        40     9      180.000000       14.072785         2
        13        12        11        40     9        0.000000       -0.779011         3
        13        12        11        40     9      180.000000        0.156331         4
        13        23        22        44     9        0.000000       -0.116536         1
        13        23        22        44     9      180.000000        4.498464         2
        13        23        22        44     9        0.000000        0.020279         3
        13        23        22        44     9      180.000000        0.736194         4
        13        23        24        45     9        0.000000        0.117782         1
        13        23        24        45     9      180.000000       12.512487         2
        13        23        24        45     9        0.000000       -0.441214         3
        13        23        24        45     9      180.000000        0.197833         4
        14         1        21        20     9        0.000000        0.153689         1
        14         1        21        20     9      180.000000       17.447546         2
        14         1        21        20     9        0.000000        0.359688         3
        14         1        21        20     9      180.000000       -0.488740         4
        14         1        22        23     9        0.000000        0.351936         1
        14         1        22        23     9      180.000000        5.430774         2
        14         1        22        23     9        0.000000        0.256777         3
        14         1        22        23     9      180.000000       -0.581052         4
        14         1        22        44     9        0.000000        1.378172         1
        14         1        22        44     9      180.000000        9.232878         2
        14         1        22        44     9        0.000000       -0.381929         3
        14         1        22        44     9      180.000000        0.408398         4
        14        15        17        18     9        0.000000       -0.165030         1
        14        15        17        18     9      180.000000        9.561850         2
        14        15        17        18     9        0.000000        0.039319         3
        14        15        17        18     9      180.000000       -0.380817         4
        14        15        17        20     9        0.000000       -0.172718         1
        14        15        17        20     9      180.000000       11.599979         2
        14        15        17        20     9        0.000000       -0.670492         3
        14        15        17        20     9      180.000000       -0.200548         4
        15        14         1        21     9        0.000000        0.173633         1
        15        14         1        21     9      180.000000       11.905287         2
        15        14         1        21     9        0.000000        0.343056         3
        15        14         1        21     9      180.000000       -0.334025         4
        15        14         1        22     9        0.000000        0.543387         1
        15        14         1        22     9      180.000000       17.792185         2
        15        14         1        22     9        0.000000        0.388653         3
        15        14         1        22     9      180.000000       -0.678554         4
        15        16         3        26     9        0.000000        0.330028         1
        15        16         3        26     9      180.000000       -0.016973         2
        15        16         3        26     9        0.000000        0.257749         3
        15        16         3        26     9      180.000000        0.011148         4
        15        16         3        27     9        0.000000        0.330028         1
        15        16         3        27     9      180.000000       -0.016973         2
        15        16         3        27     9        0.000000        0.257749         3
        15        16         3        27     9      180.000000        0.011148         4
        15        17        20        19     9        0.000000       -0.088593         1
        15        17        20        19     9      180.000000       10.631774         2
        15        17        20        19     9        0.000000       -2.991438         3
        15        17        20        19     9      180.000000       -0.135961         4
        15        17        20        21     9        0.000000       -0.102990         1
        15        17        20        21     9      180.000000       10.763070         2
        15        17        20        21     9        0.000000       -1.201859         3
        15        17        20        21     9      180.000000       -0.091120         4
        16         3         4        28     9        0.000000        0.237590         1
        16         3         4        28     9      180.000000       -0.264598         2
        16         3         4        28     9        0.000000        0.461628         3
        16         3         4        28     9      180.000000        0.034392         4
        16        15        17        18     9        0.000000       -0.348585         1
        16        15        17        18     9      180.000000       12.825177         2
        16        15        17        18     9        0.000000        0.091772         3
        16        15        17        18     9      180.000000       -0.567774         4
        16        15        17        20     9        0.000000        0.837436         1
        16        15        17        20     9      180.000000       14.145640         2
        16        15        17        20     9        0.000000        0.173329         3
        16        15        17        20     9      180.000000       -0.625288         4
        17        18         2        19     9        0.000000       -0.016017         1
        17        18         2        19     9      180.000000       43.500830         2
        17        18         2        19     9        0.000000       -4.835668         3
        17        18         2        19     9      180.000000       -0.194644         4
        17        18         2        25     9        0.000000        2.054717         1
        17        18         2        25     9      180.000000       29.581794         2
        17        18         2        25     9        0.000000        0.367800         3
        17        18         2        25     9      180.000000       -0.343970         4
        17        20        19        43     9        0.000000        2.008825         1
        17        20        19        43     9      180.000000        3.799396         2
        17        20        19        43     9        0.000000        0.501527         3
        17        20        19        43     9      180.000000        0.307059         4
        18         2        19        20     9        0.000000       -0.074250         1
        18         2        19        20     9      180.000000       25.926530         2
        18         2        19        20     9        0.000000       -5.554007         3
        18         2        19        20     9      180.000000       -0.828937         4
        18         2        19        43     9        0.000000        1.924753         1
        18         2        19        43     9      180.000000        4.938636         2
        18         2        19        43     9        0.000000        0.588703         3
        18         2        19        43     9      180.000000        0.078464         4
        18        17        20        19     9        0.000000        0.374296         1
        18        17        20        19     9      180.000000       20.693665         2
        18        17        20        19     9        0.000000       -6.669615         3
        18        17        20        19     9      180.000000       -0.371080         4
        18        17        20        21     9        0.000000        0.457400         1
        18        17        20        21     9      180.000000       13.066750         2
        18        17        20        21     9        0.000000       -1.228916         3
        18        17        20        21     9      180.000000       -0.088365         4
        20        19         2        25     9        0.000000        1.931903         1
        20        19         2        25     9      180.000000       12.607186         2
        20        19         2        25     9        0.000000        0.493422         3
        20        19         2        25     9      180.000000       -0.529070         4
        20        21         1        22     9        0.000000        0.501462         1
        20        21         1        22     9      180.000000       23.932218         2
        20        21         1        22     9        0.000000        0.562074         3
        20        21         1        22     9      180.000000       -1.182195         4
        21         1        22        23     9        0.000000        0.120882         1
        21         1        22        23     9      180.000000        4.986950         2
        21         1        22        23     9        0.000000       -0.049731         3
        21         1        22        23     9      180.000000       -0.495222         4
        21         1        22        44     9        0.000000        0.227908         1
        21         1        22        44     9      180.000000        9.184070         2
        21         1        22        44     9        0.000000       -0.524009         3
        21         1        22        44     9      180.000000        0.397410         4
        21        20        19        43     9        0.000000       -0.782489         1
        21        20        19        43     9      180.000000        2.339441         2
        21        20        19        43     9        0.000000        0.347015         3
        21        20        19        43     9      180.000000       -0.049407         4
        22        23        13        42     9        0.000000       -0.163322         1
        22        23        13        42     9      180.000000       13.855372         2
        22        23        13        42     9        0.000000       -0.081654         3
        22        23        13        42     9      180.000000        0.162302         4
        22        23        24        45     9        0.000000       -0.181551         1
        22        23        24        45     9      180.000000       13.481521         2
        22        23        24        45     9        0.000000       -0.157284         3
        22        23        24        45     9      180.000000        0.195646         4
        23        13        12        41     9        0.000000        0.048481         1
        23        13        12        41     9      180.000000       14.522807         2
        23        13        12        41     9        0.000000       -0.565038         3
        23        13        12        41     9      180.000000        0.008425         4
        23        24        10        39     9        0.000000        0.371459         1
        23        24        10        39     9      180.000000       18.822659         2
        23        24        10        39     9        0.000000        0.357603         3
        23        24        10        39     9      180.000000       -0.653812         4
        24        10        11        40     9        0.000000        0.006907         1
        24        10        11        40     9      180.000000       13.425212         2
        24        10        11        40     9        0.000000       -0.579694         3
        24        10        11        40     9      180.000000        0.114442         4
        24        23        13        42     9        0.000000        0.126628         1
        24        23        13        42     9      180.000000       12.825191         2
        24        23        13        42     9        0.000000       -0.319787         3
        24        23        13        42     9      180.000000        0.138656         4
        24        23        22        44     9        0.000000        0.410989         1
        24        23        22        44     9      180.000000        4.411233         2
        24        23        22        44     9        0.000000        0.116608         3
        24        23        22        44     9      180.000000        0.709682         4
        25         2        19        43     9        0.000000       -1.416014         1
        25         2        19        43     9      180.000000        1.549791         2
        25         2        19        43     9        0.000000        0.041555         3
        25         2        19        43     9      180.000000       -0.094404         4
        26         3         4        28     9        0.000000       -0.056760         1
        26         3         4        28     9      180.000000        0.062240         2
        26         3         4        28     9        0.000000        0.670401         3
        26         3         4        28     9      180.000000       -0.042287         4
        27         3         4        28     9        0.000000       -0.056760         1
        27         3         4        28     9      180.000000        0.062240         2
        27         3         4        28     9        0.000000        0.670401         3
        27         3         4        28     9      180.000000       -0.042287         4
        28         4         5        29     9        0.000000        0.066513         1
        28         4         5        29     9      180.000000        0.018410         2
        28         4         5        29     9        0.000000        0.425268         3
        28         4         5        29     9      180.000000       -0.019077         4
        28         4         5        30     9        0.000000        0.066513         1
        28         4         5        30     9      180.000000        0.018410         2
        28         4         5        30     9        0.000000        0.425268         3
        28         4         5        30     9      180.000000       -0.019077         4
        28         4         9        37     9        0.000000        0.066513         1
        28         4         9        37     9      180.000000        0.018409         2
        28         4         9        37     9        0.000000        0.425268         3
        28         4         9        37     9      180.000000       -0.019077         4
        28         4         9        38     9        0.000000        0.066513         1
        28         4         9        38     9      180.000000        0.018409         2
        28         4         9        38     9        0.000000        0.425268         3
        28         4         9        38     9      180.000000       -0.019077         4
        29         5         6        31     9        0.000000       -0.002936         1
        29         5         6        31     9      180.000000       -0.002515         2
        29         5         6        31     9        0.000000        0.347362         3
        29         5         6        31     9      180.000000        0.018133         4
        29         5         6        32     9        0.000000       -0.002936         1
        29         5         6        32     9      180.000000       -0.002515         2
        29         5         6        32     9        0.000000        0.347362         3
        29         5         6        32     9      180.000000        0.018133         4
        30         5         6        31     9        0.000000       -0.002936         1
        30         5         6        31     9      180.000000       -0.002515         2
        30         5         6        31     9        0.000000        0.347362         3
        30         5         6        31     9      180.000000        0.018133         4
        30         5         6        32     9        0.000000       -0.002936         1
        30         5         6        32     9      180.000000       -0.002515         2
        30         5         6        32     9        0.000000        0.347362         3
        30         5         6        32     9      180.000000        0.018133         4
        31         6         7        33     9        0.000000       -0.011526         1
        31         6         7        33     9      180.000000        0.002877         2
        31         6         7        33     9        0.000000        0.360739         3
        31         6         7        33     9      180.000000        0.004206         4
        31         6         7        34     9        0.000000       -0.011526         1
        31         6         7        34     9      180.000000        0.002877         2
        31         6         7        34     9        0.000000        0.360739         3
        31         6         7        34     9      180.000000        0.004206         4
        32         6         7        33     9        0.000000       -0.011526         1
        32         6         7        33     9      180.000000        0.002877         2
        32         6         7        33     9        0.000000        0.360739         3
        32         6         7        33     9      180.000000        0.004206         4
        32         6         7        34     9        0.000000       -0.011526         1
        32         6         7        34     9      180.000000        0.002877         2
        32         6         7        34     9        0.000000        0.360739         3
        32         6         7        34     9      180.000000        0.004206         4
        33         7         8        35     9        0.000000       -0.011526         1
        33         7         8        35     9      180.000000        0.002878         2
        33         7         8        35     9        0.000000        0.360739         3
        33         7         8        35     9      180.000000        0.004206         4
        33         7         8        36     9        0.000000       -0.011526         1
        33         7         8        36     9      180.000000        0.002878         2
        33         7         8        36     9        0.000000        0.360739         3
        33         7         8        36     9      180.000000        0.004206         4
        34         7         8        35     9        0.000000       -0.011526         1
        34         7         8        35     9      180.000000        0.002878         2
        34         7         8        35     9        0.000000        0.360739         3
        34         7         8        35     9      180.000000        0.004206         4
        34         7         8        36     9        0.000000       -0.011526         1
        34         7         8        36     9      180.000000        0.002878         2
        34         7         8        36     9        0.000000        0.360739         3
        34         7         8        36     9      180.000000        0.004206         4
        35         8         9        37     9        0.000000       -0.002936         1
        35         8         9        37     9      180.000000       -0.002515         2
        35         8         9        37     9        0.000000        0.347362         3
        35         8         9        37     9      180.000000        0.018133         4
        35         8         9        38     9        0.000000       -0.002936         1
        35         8         9        38     9      180.000000       -0.002515         2
        35         8         9        38     9        0.000000        0.347362         3
        35         8         9        38     9      180.000000        0.018133         4
        36         8         9        37     9        0.000000       -0.002936         1
        36         8         9        37     9      180.000000       -0.002515         2
        36         8         9        37     9        0.000000        0.347362         3
        36         8         9        37     9      180.000000        0.018133         4
        36         8         9        38     9        0.000000       -0.002936         1
        36         8         9        38     9      180.000000       -0.002515         2
        36         8         9        38     9        0.000000        0.347362         3
        36         8         9        38     9      180.000000        0.018133         4
        39        10        11        40     9        0.000000        0.199581         1
        39        10        11        40     9      180.000000       13.370059         2
        39        10        11        40     9        0.000000       -0.066657         3
        39        10        11        40     9      180.000000        0.219471         4
        39        10        24        45     9        0.000000        0.192015         1
        39        10        24        45     9      180.000000       13.735506         2
        39        10        24        45     9        0.000000       -0.056354         3
        39        10        24        45     9      180.000000        0.224756         4
        40        11        12        41     9        0.000000       -0.199290         1
        40        11        12        41     9      180.000000       11.461415         2
        40        11        12        41     9        0.000000       -0.606227         3
        40        11        12        41     9      180.000000        0.287641         4
        41        12        13        42     9        0.000000       -0.142607         1
        41        12        13        42     9      180.000000       12.039779         2
        41        12        13        42     9        0.000000       -0.637537         3
        41        12        13        42     9      180.000000        0.255942         4

[ dihedrals ] ; impropers
;       ai        aj        ak        al funct           phase               k        pn
         1        14        21        22     4      180.000000       27.893333         2
         1        21        22        14     4      180.000000       27.893333         2
         1        22        14        21     4      180.000000       27.893333         2
         2        18        19        25     4      180.000000        4.389009         2
         2        19        25        18     4      180.000000        4.389009         2
         2        25        18        19     4      180.000000        4.389009         2
        15        14        16        17     4      180.000000        7.449072         2
        15        16        17        14     4      180.000000        7.449072         2
        15        17        14        16     4      180.000000        7.449072         2

[ pairs ]
;       ai        aj funct
         1        13     1
         1        16     1
         1        17     1
         1        19     1
         1        24     1
         2        15     1
         2        21     1
         3         6     1
         3         8     1
         3        14     1
         3        17     1
         3        29     1
         3        30     1
         3        37     1
         3        38     1
         4         7     1
         4        15     1
         4        31     1
         4        32     1
         4        35     1
         4        36     1
         5         8     1
         5        16     1
         5        26     1
         5        27     1
         5        33     1
         5        34     1
         5        37     1
         5        38     1
         6         9     1
         6        28     1
         6        35     1
         6        36     1
         7        29     1
         7        30     1
         7        37     1
         7        38     1
         8        28     1
         8        31     1
         8        32     1
         9        16     1
         9        26     1
         9        27     1
         9        29     1
         9        30     1
         9        33     1
         9        34     1
        10        13     1
        10        22     1
        10        41     1
        11        23     1
        11        42     1
        11        45     1
        12        22     1
        12        24     1
        12        39     1
        13        40     1
        13        44     1
        13        45     1
        14        18     1
        14        20     1
        14        23     1
        14        44     1
        15        19     1
        15        21     1
        15        22     1
        15        26     1
        15        27     1
        16        18     1
        16        20     1
        16        28     1
        17        25     1
        17        43     1
        18        21     1
        18        43     1
        20        22     1
        20        25     1
        21        23     1
        21        43     1
        21        44     1
        22        42     1
        22        45     1
        23        39     1
        23        41     1
        24        40     1
        24        42     1
        24        44     1
        25        43     1
        26        28     1
        27        28     1
        28        29     1
        28        30     1
        28        37     1
        28        38     1
        29        31     1
        29        32     1
        30        31     1
        30        32     1
        31        33     1
        31        34     1
        32        33     1
        32        34     1
        33        35     1
        33        36     1
        34        35     1
        34        36     1
        35        37     1
        35        38     1
        36        37     1
        36        38     1
        39        40     1
        39        45     1
        40        41     1
        41        42     1
