; ITP file created by ByteFF-ML, 2026-02-21 08:15:15.847776

[ atomtypes ]
;name           bonded.type        at.num        mass        charge   ptype           sigma         epsilon
 c0bf                                   6      0.0000       0.00000       A     3.31371e-01     4.10884e-01
 c1bf                                   6      0.0000       0.00000       A     3.31561e-01     4.12921e-01
 c2bf                                   6      0.0000       0.00000       A     3.39871e-01     4.51764e-01
 c3bf                                   6      0.0000       0.00000       A     3.39843e-01     4.50018e-01
 c4bf                                   6      0.0000       0.00000       A     3.39899e-01     4.51145e-01
 c5bf                                   6      0.0000       0.00000       A     3.39813e-01     4.51102e-01
 c6bf                                   6      0.0000       0.00000       A     3.39822e-01     4.51269e-01
 c7bf                                   6      0.0000       0.00000       A     3.39813e-01     4.51102e-01
 c8bf                                   6      0.0000       0.00000       A     3.39899e-01     4.51145e-01
 c9bf                                   6      0.0000       0.00000       A     3.31492e-01     4.12586e-01
 c10bf                                  6      0.0000       0.00000       A     3.31370e-01     4.14201e-01
 c11bf                                  6      0.0000       0.00000       A     3.31492e-01     4.12586e-01
 c12bf                                  6      0.0000       0.00000       A     3.31405e-01     4.12319e-01
 n13bf                                  7      0.0000       0.00000       A     3.38528e-01     3.90327e-01
 c14bf                                  6      0.0000       0.00000       A     3.31242e-01     4.07848e-01
 o15bf                                  8      0.0000       0.00000       A     3.15812e-01     3.05090e-01
 c16bf                                  6      0.0000       0.00000       A     3.31473e-01     4.11778e-01
 n17bf                                  7      0.0000       0.00000       A     3.38495e-01     3.93153e-01
 n18bf                                  7      0.0000       0.00000       A     3.20544e-01     8.50135e-01
 c19bf                                  6      0.0000       0.00000       A     3.31276e-01     4.12204e-01
 n20bf                                  7      0.0000       0.00000       A     3.38544e-01     3.90368e-01
 n21bf                                  7      0.0000       0.00000       A     3.27832e-01     6.47703e-01
 c22bf                                  6      0.0000       0.00000       A     3.31352e-01     4.13039e-01
 c23bf                                  6      0.0000       0.00000       A     3.31405e-01     4.12319e-01
 h24bf                                  1      0.0000       0.00000       A     2.45287e-01     6.70062e-02
 h25bf                                  1      0.0000       0.00000       A     2.42491e-01     8.77168e-02
 h26bf                                  1      0.0000       0.00000       A     2.42491e-01     8.77168e-02
 h27bf                                  1      0.0000       0.00000       A     2.60099e-01     8.60297e-02
 h28bf                                  1      0.0000       0.00000       A     2.59920e-01     8.70145e-02
 h29bf                                  1      0.0000       0.00000       A     2.59920e-01     8.70145e-02
 h30bf                                  1      0.0000       0.00000       A     2.60020e-01     8.71182e-02
 h31bf                                  1      0.0000       0.00000       A     2.60020e-01     8.71182e-02
 h32bf                                  1      0.0000       0.00000       A     2.59998e-01     8.72507e-02
 h33bf                                  1      0.0000       0.00000       A     2.59998e-01     8.72507e-02
 h34bf                                  1      0.0000       0.00000       A     2.60020e-01     8.71182e-02
 h35bf                                  1      0.0000       0.00000       A     2.60020e-01     8.71182e-02
 h36bf                                  1      0.0000       0.00000       A     2.59920e-01     8.70145e-02
 h37bf                                  1      0.0000       0.00000       A     2.59920e-01     8.70145e-02
 h38bf                                  1      0.0000       0.00000       A     2.62481e-01     6.70078e-02
 o39bf                                  8      0.0000       0.00000       A     3.15888e-01     3.04118e-01
 h40bf                                  1      0.0000       0.00000       A     2.62481e-01     6.70078e-02
 h41bf                                  1      0.0000       0.00000       A     2.62478e-01     6.76031e-02
 h42bf                                  1      0.0000       0.00000       A     1.10794e-01     4.09966e-02
 h43bf                                  1      0.0000       0.00000       A     1.10362e-01     4.30827e-02
 h44bf                                  1      0.0000       0.00000       A     2.62478e-01     6.76031e-02
 c45bf                                  6      0.0000       0.00000       A     3.39778e-01     4.49916e-01
 h46bf                                  1      0.0000       0.00000       A     2.42080e-01     8.75859e-02
 h47bf                                  1      0.0000       0.00000       A     2.42080e-01     8.75859e-02
 h48bf                                  1      0.0000       0.00000       A     2.42080e-01     8.75859e-02

[ moleculetype ]
;name             nrexcl
 26                    3

[ atoms ]
;       nr            type      resi   res      atom      cgnr      charge          mass ; qtot
         1            c0bf         1   UNL        c0         1     0.42914       12.0110 ; qtot    0.429
         2            c1bf         1   UNL        c1         2     0.41453       12.0110 ; qtot    0.844
         3            c2bf         1   UNL        c2         3     0.17436       12.0110 ; qtot    1.018
         4            c3bf         1   UNL        c3         4    -0.07501       12.0110 ; qtot    0.943
         5            c4bf         1   UNL        c4         5    -0.07113       12.0110 ; qtot    0.872
         6            c5bf         1   UNL        c5         6    -0.07455       12.0110 ; qtot    0.797
         7            c6bf         1   UNL        c6         7    -0.07619       12.0110 ; qtot    0.721
         8            c7bf         1   UNL        c7         8    -0.07455       12.0110 ; qtot    0.647
         9            c8bf         1   UNL        c8         9    -0.07113       12.0110 ; qtot    0.575
        10            c9bf         1   UNL        c9        10    -0.14969       12.0110 ; qtot    0.426
        11           c10bf         1   UNL       c10        11     0.11806       12.0110 ; qtot    0.544
        12           c11bf         1   UNL       c11        12    -0.14969       12.0110 ; qtot    0.394
        13           c12bf         1   UNL       c12        13    -0.11625       12.0110 ; qtot    0.278
        14           n13bf         1   UNL       n13        14    -0.32855       14.0070 ; qtot   -0.051
        15           c14bf         1   UNL       c14        15     0.44491       12.0110 ; qtot    0.394
        16           o15bf         1   UNL       o15        16    -0.44076       15.9990 ; qtot   -0.047
        17           c16bf         1   UNL       c16        17    -0.08920       12.0110 ; qtot   -0.136
        18           n17bf         1   UNL       n17        18    -0.52838       14.0070 ; qtot   -0.664
        19           n18bf         1   UNL       n18        19    -0.42790       14.0070 ; qtot   -1.092
        20           c19bf         1   UNL       c19        20     0.15819       12.0110 ; qtot   -0.934
        21           n20bf         1   UNL       n20        21    -0.24940       14.0070 ; qtot   -1.183
        22           n21bf         1   UNL       n21        22    -0.92540       14.0070 ; qtot   -2.109
        23           c22bf         1   UNL       c22        23     0.28079       12.0110 ; qtot   -1.828
        24           c23bf         1   UNL       c23        24    -0.11625       12.0110 ; qtot   -1.944
        25           h24bf         1   UNL       h24        25     0.07339        1.0080 ; qtot   -1.871
        26           h25bf         1   UNL       h25        26     0.05841        1.0080 ; qtot   -1.812
        27           h26bf         1   UNL       h26        27     0.05841        1.0080 ; qtot   -1.754
        28           h27bf         1   UNL       h27        28     0.05567        1.0080 ; qtot   -1.698
        29           h28bf         1   UNL       h28        29     0.04118        1.0080 ; qtot   -1.657
        30           h29bf         1   UNL       h29        30     0.04118        1.0080 ; qtot   -1.616
        31           h30bf         1   UNL       h30        31     0.03867        1.0080 ; qtot   -1.577
        32           h31bf         1   UNL       h31        32     0.03867        1.0080 ; qtot   -1.538
        33           h32bf         1   UNL       h32        33     0.03771        1.0080 ; qtot   -1.501
        34           h33bf         1   UNL       h33        34     0.03771        1.0080 ; qtot   -1.463
        35           h34bf         1   UNL       h34        35     0.03867        1.0080 ; qtot   -1.424
        36           h35bf         1   UNL       h35        36     0.03867        1.0080 ; qtot   -1.386
        37           h36bf         1   UNL       h36        37     0.04118        1.0080 ; qtot   -1.345
        38           h37bf         1   UNL       h37        38     0.04118        1.0080 ; qtot   -1.303
        39           h38bf         1   UNL       h38        39     0.12377        1.0080 ; qtot   -1.180
        40           o39bf         1   UNL       o39        40    -0.34624       15.9990 ; qtot   -1.526
        41           h40bf         1   UNL       h40        41     0.12377        1.0080 ; qtot   -1.402
        42           h41bf         1   UNL       h41        42     0.12819        1.0080 ; qtot   -1.274
        43           h42bf         1   UNL       h42        43     0.36955        1.0080 ; qtot   -0.904
        44           h43bf         1   UNL       h43        44     0.50510        1.0080 ; qtot   -0.399
        45           h44bf         1   UNL       h44        45     0.12819        1.0080 ; qtot   -0.271
        46           c45bf         1   UNL       c45        46     0.14272       12.0110 ; qtot   -0.128
        47           h46bf         1   UNL       h46        47     0.04277        1.0080 ; qtot   -0.086
        48           h47bf         1   UNL       h47        48     0.04277        1.0080 ; qtot   -0.043
        49           h48bf         1   UNL       h48        49     0.04276        1.0080 ; qtot    0.000

[ bonds ]
;       ai        aj funct               r               k
         1        14     1        0.135836   243809.269629
         1        21     1        0.134746   273550.808691
         1        22     1        0.137583   294461.845166
         2        18     1        0.131231   401108.465723
         2        19     1        0.138733   259320.918457
         2        25     1        0.108240   334117.349756
         3         4     1        0.152692   185880.201221
         3        16     1        0.144753   167521.994653
         3        26     1        0.109334   299257.407861
         3        27     1        0.109334   299257.407861
         4         5     1        0.154313   170901.358643
         4         9     1        0.154313   170901.358643
         4        28     1        0.109742   295748.583496
         5         6     1        0.153885   180885.436304
         5        29     1        0.109603   293012.639746
         5        30     1        0.109603   293012.639746
         6         7     1        0.154006   181295.638892
         6        31     1        0.109610   292977.858203
         6        32     1        0.109610   292977.858203
         7         8     1        0.154006   181295.638892
         7        33     1        0.109630   292724.555615
         7        34     1        0.109630   292724.555615
         8         9     1        0.153885   180885.436304
         8        35     1        0.109610   292977.858203
         8        36     1        0.109610   292977.858203
         9        37     1        0.109603   293012.639746
         9        38     1        0.109603   293012.639746
        10        11     1        0.140243   287863.183789
        10        24     1        0.139625   325280.003223
        10        39     1        0.108444   322782.882520
        11        12     1        0.140243   287863.183789
        11        40     1        0.137015   267424.966895
        12        13     1        0.139625   325280.003223
        12        41     1        0.108444   322782.908057
        13        23     1        0.140545   283537.427295
        13        42     1        0.108438   323488.243018
        14        15     1        0.132634   330563.069336
        15        16     1        0.133885   301390.854590
        15        17     1        0.141155   267153.456348
        17        18     1        0.139065   235487.568408
        17        20     1        0.140928   253367.528760
        19        20     1        0.137931   267001.816992
        19        43     1        0.101110   430360.918066
        20        21     1        0.133417   339441.913672
        22        23     1        0.140842   255049.198486
        22        44     1        0.101186   417643.820654
        23        24     1        0.140545   283537.452832
        24        45     1        0.108438   323488.217480
        40        46     1        0.142441   208856.845093
        46        47     1        0.109438   297412.683691
        46        48     1        0.109438   297412.683691
        46        49     1        0.109438   297412.683691

[ angles ]
;       ai        aj        ak funct           theta             cth
         1        14        15     1      118.655899      871.733361
         1        21        20     1      112.039780      770.073959
         1        22        23     1      132.175247      366.677586
         1        22        44     1      111.588394      501.944143
         2        18        17     1      104.381546      530.233993
         2        19        20     1      106.571243      477.182276
         2        19        43     1      127.522507      351.139148
         3         4         5     1      111.137985      612.095782
         3         4         9     1      111.137985      612.095782
         3         4        28     1      106.713394      523.738214
         3        16        15     1      118.010170      527.040928
         4         3        16     1      109.104393      598.962494
         4         3        26     1      111.158119      481.750482
         4         3        27     1      111.158119      481.750482
         4         5         6     1      111.670677      620.981611
         4         5        29     1      109.463394      488.810822
         4         5        30     1      109.463394      488.810822
         4         9         8     1      111.670677      620.981611
         4         9        37     1      109.463394      488.810822
         4         9        38     1      109.463394      488.810854
         5         4         9     1      110.476418      570.964501
         5         4        28     1      108.166306      494.312282
         5         6         7     1      111.254883      628.944784
         5         6        31     1      109.653061      513.133802
         5         6        32     1      109.653061      513.133802
         6         5        29     1      109.769836      507.804718
         6         5        30     1      109.769836      507.804718
         6         7         8     1      111.105492      586.409664
         6         7        33     1      109.773476      507.912995
         6         7        34     1      109.773476      507.912995
         7         6        31     1      109.843277      500.167366
         7         6        32     1      109.843277      500.167366
         7         8         9     1      111.254883      628.944784
         7         8        35     1      109.843277      500.167366
         7         8        36     1      109.843277      500.167366
         8         7        33     1      109.773476      507.912995
         8         7        34     1      109.773476      507.912995
         8         9        37     1      109.769836      507.804718
         8         9        38     1      109.769836      507.804718
         9         4        28     1      108.166306      494.312282
         9         8        35     1      109.653061      513.133802
         9         8        36     1      109.653061      513.133802
        10        11        12     1      119.322586      535.418281
        10        11        40     1      120.679688      573.431067
        10        24        23     1      120.717575      721.401697
        10        24        45     1      119.752365      395.007944
        11        10        24     1      120.374489      733.420546
        11        10        39     1      120.186584      434.844111
        11        12        13     1      120.374489      733.420546
        11        12        41     1      120.186584      434.844111
        11        40        46     1      117.890480      564.265160
        12        11        40     1      120.679688      573.431067
        12        13        23     1      120.717575      721.401697
        12        13        42     1      119.752365      395.007944
        13        12        41     1      119.476257      430.185121
        13        23        22     1      120.935440      579.795872
        13        23        24     1      118.517105      562.342471
        14         1        21     1      126.748802      572.036740
        14         1        22     1      115.357567      544.877514
        14        15        16     1      119.705566      568.341712
        14        15        17     1      120.071701      677.955988
        15        17        18     1      134.552612      391.243902
        15        17        20     1      114.503098      858.921138
        16         3        26     1      108.039749      467.246936
        16         3        27     1      108.039749      467.246968
        16        15        17     1      119.857567      387.199207
        17        20        19     1      104.960571      167.360000
        17        20        21     1      126.952988      649.919561
        18         2        19     1      113.290321      253.286212
        18         2        25     1      125.315651      307.732096
        18        17        20     1      110.880020      174.657229
        19         2        25     1      121.547646      428.093951
        19        20        21     1      128.406540      555.174459
        20        19        43     1      125.677979      421.598970
        21         1        22     1      116.718407      525.240307
        22        23        24     1      120.935440      579.795872
        23        13        42     1      119.590881      434.863264
        23        22        44     1      115.702988      455.590905
        23        24        45     1      119.590881      434.863264
        24        10        39     1      119.476242      430.185057
        26         3        27     1      108.659584      341.810634
        29         5        30     1      106.333191      362.772834
        31         6        32     1      106.314087      364.477883
        33         7        34     1      106.405663      365.992170
        35         8        36     1      106.314087      364.477883
        37         9        38     1      106.333191      362.772834
        40        46        47     1      109.552940      448.831711
        40        46        48     1      109.552940      448.831711
        40        46        49     1      109.552940      448.831711
        47        46        48     1      109.477646      342.882139
        47        46        49     1      109.477646      342.882139
        48        46        49     1      109.477646      342.882107

[ dihedrals ] ; propers for gromacs 4.5 or higher, use funct 9
;       ai        aj        ak        al funct           phase               k        pn
         1        14        15        16     9        0.000000        0.863442         1
         1        14        15        16     9      180.000000       20.127384         2
         1        14        15        16     9        0.000000        0.469353         3
         1        14        15        16     9      180.000000       -0.568457         4
         1        14        15        17     9        0.000000       -0.352130         1
         1        14        15        17     9      180.000000       17.947189         2
         1        14        15        17     9        0.000000       -0.802735         3
         1        14        15        17     9      180.000000       -0.477479         4
         1        21        20        17     9        0.000000       -1.173084         1
         1        21        20        17     9      180.000000       17.088887         2
         1        21        20        17     9        0.000000       -1.418214         3
         1        21        20        17     9      180.000000       -0.376701         4
         1        21        20        19     9        0.000000        0.376802         1
         1        21        20        19     9      180.000000       18.196932         2
         1        21        20        19     9        0.000000       -0.112690         3
         1        21        20        19     9      180.000000       -0.671257         4
         1        22        23        13     9        0.000000        0.508168         1
         1        22        23        13     9      180.000000        3.000474         2
         1        22        23        13     9        0.000000       -0.022266         3
         1        22        23        13     9      180.000000        0.364937         4
         1        22        23        24     9        0.000000        0.508168         1
         1        22        23        24     9      180.000000        3.000474         2
         1        22        23        24     9        0.000000       -0.022266         3
         1        22        23        24     9      180.000000        0.364937         4
         2        18        17        15     9        0.000000        0.966745         1
         2        18        17        15     9      180.000000        4.563655         2
         2        18        17        15     9        0.000000       -0.088105         3
         2        18        17        15     9      180.000000        0.411865         4
         2        18        17        20     9        0.000000       -0.418511         1
         2        18        17        20     9      180.000000       25.957428         2
         2        18        17        20     9        0.000000       -5.696975         3
         2        18        17        20     9      180.000000        0.330849         4
         2        19        20        17     9        0.000000        0.035604         1
         2        19        20        17     9      180.000000       20.967455         2
         2        19        20        17     9        0.000000       -6.696193         3
         2        19        20        17     9      180.000000       -0.916467         4
         2        19        20        21     9        0.000000        1.482139         1
         2        19        20        21     9      180.000000        5.193138         2
         2        19        20        21     9        0.000000        0.440334         3
         2        19        20        21     9      180.000000       -0.164172         4
         3         4         5         6     9        0.000000       -0.197301         1
         3         4         5         6     9      180.000000        0.178339         2
         3         4         5         6     9        0.000000        0.213391         3
         3         4         5         6     9      180.000000        0.027667         4
         3         4         5        29     9        0.000000       -0.026112         1
         3         4         5        29     9      180.000000        0.018480         2
         3         4         5        29     9        0.000000        0.297345         3
         3         4         5        29     9      180.000000       -0.011127         4
         3         4         5        30     9        0.000000       -0.026112         1
         3         4         5        30     9      180.000000        0.018480         2
         3         4         5        30     9        0.000000        0.297345         3
         3         4         5        30     9      180.000000       -0.011127         4
         3         4         9         8     9        0.000000       -0.197301         1
         3         4         9         8     9      180.000000        0.178339         2
         3         4         9         8     9        0.000000        0.213391         3
         3         4         9         8     9      180.000000        0.027667         4
         3         4         9        37     9        0.000000       -0.026112         1
         3         4         9        37     9      180.000000        0.018480         2
         3         4         9        37     9        0.000000        0.297345         3
         3         4         9        37     9      180.000000       -0.011127         4
         3         4         9        38     9        0.000000       -0.026113         1
         3         4         9        38     9      180.000000        0.018480         2
         3         4         9        38     9        0.000000        0.297345         3
         3         4         9        38     9      180.000000       -0.011127         4
         3        16        15        14     9        0.000000       -2.205326         1
         3        16        15        14     9      180.000000        9.019684         2
         3        16        15        14     9        0.000000       -0.068592         3
         3        16        15        14     9      180.000000        0.122366         4
         3        16        15        17     9        0.000000        4.488848         1
         3        16        15        17     9      180.000000        7.017319         2
         3        16        15        17     9        0.000000        0.891880         3
         3        16        15        17     9      180.000000       -0.044605         4
         4         3        16        15     9        0.000000       -2.608944         1
         4         3        16        15     9      180.000000        0.244735         2
         4         3        16        15     9        0.000000        0.118435         3
         4         3        16        15     9      180.000000        0.092588         4
         4         5         6         7     9        0.000000        0.862075         1
         4         5         6         7     9      180.000000       -1.609407         2
         4         5         6         7     9        0.000000        0.346945         3
         4         5         6         7     9      180.000000       -0.018399         4
         4         5         6        31     9        0.000000       -0.047786         1
         4         5         6        31     9      180.000000        0.059114         2
         4         5         6        31     9        0.000000        0.287767         3
         4         5         6        31     9      180.000000       -0.004900         4
         4         5         6        32     9        0.000000       -0.047786         1
         4         5         6        32     9      180.000000        0.059114         2
         4         5         6        32     9        0.000000        0.287767         3
         4         5         6        32     9      180.000000       -0.004900         4
         4         9         8         7     9        0.000000        0.862075         1
         4         9         8         7     9      180.000000       -1.609407         2
         4         9         8         7     9        0.000000        0.346945         3
         4         9         8         7     9      180.000000       -0.018399         4
         4         9         8        35     9        0.000000       -0.047786         1
         4         9         8        35     9      180.000000        0.059114         2
         4         9         8        35     9        0.000000        0.287767         3
         4         9         8        35     9      180.000000       -0.004900         4
         4         9         8        36     9        0.000000       -0.047786         1
         4         9         8        36     9      180.000000        0.059114         2
         4         9         8        36     9        0.000000        0.287767         3
         4         9         8        36     9      180.000000       -0.004900         4
         5         4         3        16     9        0.000000       -0.513019         1
         5         4         3        16     9      180.000000        0.098862         2
         5         4         3        16     9        0.000000        0.549427         3
         5         4         3        16     9      180.000000        0.006330         4
         5         4         3        26     9        0.000000        0.003642         1
         5         4         3        26     9      180.000000       -0.024774         2
         5         4         3        26     9        0.000000        0.646712         3
         5         4         3        26     9      180.000000        0.019975         4
         5         4         3        27     9        0.000000        0.003642         1
         5         4         3        27     9      180.000000       -0.024774         2
         5         4         3        27     9        0.000000        0.646712         3
         5         4         3        27     9      180.000000        0.019975         4
         5         4         9         8     9        0.000000        1.581014         1
         5         4         9         8     9      180.000000       -1.652676         2
         5         4         9         8     9        0.000000        0.266059         3
         5         4         9         8     9      180.000000       -0.075974         4
         5         4         9        37     9        0.000000       -0.048460         1
         5         4         9        37     9      180.000000        0.037258         2
         5         4         9        37     9        0.000000        0.325609         3
         5         4         9        37     9      180.000000        0.003181         4
         5         4         9        38     9        0.000000       -0.048460         1
         5         4         9        38     9      180.000000        0.037258         2
         5         4         9        38     9        0.000000        0.325609         3
         5         4         9        38     9      180.000000        0.003181         4
         5         6         7         8     9        0.000000        0.208289         1
         5         6         7         8     9      180.000000       -0.946731         2
         5         6         7         8     9        0.000000        0.403240         3
         5         6         7         8     9      180.000000       -0.064174         4
         5         6         7        33     9        0.000000       -0.024377         1
         5         6         7        33     9      180.000000        0.026478         2
         5         6         7        33     9        0.000000        0.353064         3
         5         6         7        33     9      180.000000        0.005397         4
         5         6         7        34     9        0.000000       -0.024377         1
         5         6         7        34     9      180.000000        0.026478         2
         5         6         7        34     9        0.000000        0.353064         3
         5         6         7        34     9      180.000000        0.005397         4
         6         5         4         9     9        0.000000        1.581014         1
         6         5         4         9     9      180.000000       -1.652676         2
         6         5         4         9     9        0.000000        0.266059         3
         6         5         4         9     9      180.000000       -0.075974         4
         6         5         4        28     9        0.000000       -0.629608         1
         6         5         4        28     9      180.000000        0.100159         2
         6         5         4        28     9        0.000000        0.248449         3
         6         5         4        28     9      180.000000        0.009530         4
         6         7         8         9     9        0.000000        0.208289         1
         6         7         8         9     9      180.000000       -0.946731         2
         6         7         8         9     9        0.000000        0.403240         3
         6         7         8         9     9      180.000000       -0.064174         4
         6         7         8        35     9        0.000000       -0.034385         1
         6         7         8        35     9      180.000000        0.026514         2
         6         7         8        35     9        0.000000        0.317647         3
         6         7         8        35     9      180.000000       -0.000110         4
         6         7         8        36     9        0.000000       -0.034385         1
         6         7         8        36     9      180.000000        0.026514         2
         6         7         8        36     9        0.000000        0.317647         3
         6         7         8        36     9      180.000000       -0.000110         4
         7         6         5        29     9        0.000000       -0.028017         1
         7         6         5        29     9      180.000000        0.042440         2
         7         6         5        29     9        0.000000        0.321603         3
         7         6         5        29     9      180.000000       -0.000827         4
         7         6         5        30     9        0.000000       -0.028017         1
         7         6         5        30     9      180.000000        0.042440         2
         7         6         5        30     9        0.000000        0.321603         3
         7         6         5        30     9      180.000000       -0.000827         4
         7         8         9        37     9        0.000000       -0.028017         1
         7         8         9        37     9      180.000000        0.042440         2
         7         8         9        37     9        0.000000        0.321603         3
         7         8         9        37     9      180.000000       -0.000827         4
         7         8         9        38     9        0.000000       -0.028017         1
         7         8         9        38     9      180.000000        0.042440         2
         7         8         9        38     9        0.000000        0.321603         3
         7         8         9        38     9      180.000000       -0.000827         4
         8         7         6        31     9        0.000000       -0.034385         1
         8         7         6        31     9      180.000000        0.026514         2
         8         7         6        31     9        0.000000        0.317647         3
         8         7         6        31     9      180.000000       -0.000110         4
         8         7         6        32     9        0.000000       -0.034385         1
         8         7         6        32     9      180.000000        0.026514         2
         8         7         6        32     9        0.000000        0.317647         3
         8         7         6        32     9      180.000000       -0.000110         4
         8         9         4        28     9        0.000000       -0.629608         1
         8         9         4        28     9      180.000000        0.100159         2
         8         9         4        28     9        0.000000        0.248449         3
         8         9         4        28     9      180.000000        0.009530         4
         9         4         3        16     9        0.000000       -0.513019         1
         9         4         3        16     9      180.000000        0.098862         2
         9         4         3        16     9        0.000000        0.549427         3
         9         4         3        16     9      180.000000        0.006330         4
         9         4         3        26     9        0.000000        0.003642         1
         9         4         3        26     9      180.000000       -0.024774         2
         9         4         3        26     9        0.000000        0.646712         3
         9         4         3        26     9      180.000000        0.019975         4
         9         4         3        27     9        0.000000        0.003642         1
         9         4         3        27     9      180.000000       -0.024774         2
         9         4         3        27     9        0.000000        0.646712         3
         9         4         3        27     9      180.000000        0.019975         4
         9         4         5        29     9        0.000000       -0.048460         1
         9         4         5        29     9      180.000000        0.037258         2
         9         4         5        29     9        0.000000        0.325609         3
         9         4         5        29     9      180.000000        0.003181         4
         9         4         5        30     9        0.000000       -0.048460         1
         9         4         5        30     9      180.000000        0.037258         2
         9         4         5        30     9        0.000000        0.325609         3
         9         4         5        30     9      180.000000        0.003181         4
         9         8         7        33     9        0.000000       -0.024377         1
         9         8         7        33     9      180.000000        0.026478         2
         9         8         7        33     9        0.000000        0.353064         3
         9         8         7        33     9      180.000000        0.005397         4
         9         8         7        34     9        0.000000       -0.024377         1
         9         8         7        34     9      180.000000        0.026478         2
         9         8         7        34     9        0.000000        0.353064         3
         9         8         7        34     9      180.000000        0.005397         4
        10        11        12        13     9        0.000000       -0.069043         1
        10        11        12        13     9      180.000000       15.938130         2
        10        11        12        13     9        0.000000       -1.046641         3
        10        11        12        13     9      180.000000       -0.268120         4
        10        11        12        41     9        0.000000        0.157366         1
        10        11        12        41     9      180.000000       12.560851         2
        10        11        12        41     9        0.000000       -0.501509         3
        10        11        12        41     9      180.000000        0.194383         4
        10        11        40        46     9        0.000000        0.158106         1
        10        11        40        46     9      180.000000        5.253969         2
        10        11        40        46     9        0.000000       -0.072496         3
        10        11        40        46     9      180.000000        0.691363         4
        10        24        23        13     9        0.000000       -0.017937         1
        10        24        23        13     9      180.000000       16.620960         2
        10        24        23        13     9        0.000000       -1.232219         3
        10        24        23        13     9      180.000000       -0.201314         4
        10        24        23        22     9        0.000000        0.117117         1
        10        24        23        22     9      180.000000       17.162783         2
        10        24        23        22     9        0.000000        0.012708         3
        10        24        23        22     9      180.000000       -0.331937         4
        11        10        24        23     9        0.000000       -0.039954         1
        11        10        24        23     9      180.000000       18.492528         2
        11        10        24        23     9        0.000000       -1.578820         3
        11        10        24        23     9      180.000000       -0.504528         4
        11        10        24        45     9        0.000000        0.091688         1
        11        10        24        45     9      180.000000       14.622902         2
        11        10        24        45     9        0.000000       -0.420428         3
        11        10        24        45     9      180.000000        0.121931         4
        11        12        13        23     9        0.000000       -0.039954         1
        11        12        13        23     9      180.000000       18.492528         2
        11        12        13        23     9        0.000000       -1.578820         3
        11        12        13        23     9      180.000000       -0.504528         4
        11        12        13        42     9        0.000000        0.091688         1
        11        12        13        42     9      180.000000       14.622902         2
        11        12        13        42     9        0.000000       -0.420428         3
        11        12        13        42     9      180.000000        0.121931         4
        11        40        46        47     9        0.000000       -0.090080         1
        11        40        46        47     9      180.000000        0.026740         2
        11        40        46        47     9        0.000000        0.704413         3
        11        40        46        47     9      180.000000       -0.026119         4
        11        40        46        48     9        0.000000       -0.090080         1
        11        40        46        48     9      180.000000        0.026740         2
        11        40        46        48     9        0.000000        0.704413         3
        11        40        46        48     9      180.000000       -0.026119         4
        11        40        46        49     9        0.000000       -0.090080         1
        11        40        46        49     9      180.000000        0.026740         2
        11        40        46        49     9        0.000000        0.704413         3
        11        40        46        49     9      180.000000       -0.026119         4
        12        11        10        24     9        0.000000       -0.069043         1
        12        11        10        24     9      180.000000       15.938130         2
        12        11        10        24     9        0.000000       -1.046641         3
        12        11        10        24     9      180.000000       -0.268120         4
        12        11        10        39     9        0.000000        0.157366         1
        12        11        10        39     9      180.000000       12.560851         2
        12        11        10        39     9        0.000000       -0.501509         3
        12        11        10        39     9      180.000000        0.194383         4
        12        11        40        46     9        0.000000        0.158106         1
        12        11        40        46     9      180.000000        5.253969         2
        12        11        40        46     9        0.000000       -0.072496         3
        12        11        40        46     9      180.000000        0.691363         4
        12        13        23        22     9        0.000000        0.117117         1
        12        13        23        22     9      180.000000       17.162783         2
        12        13        23        22     9        0.000000        0.012708         3
        12        13        23        22     9      180.000000       -0.331937         4
        12        13        23        24     9        0.000000       -0.017937         1
        12        13        23        24     9      180.000000       16.620960         2
        12        13        23        24     9        0.000000       -1.232219         3
        12        13        23        24     9      180.000000       -0.201314         4
        13        12        11        40     9        0.000000        0.470829         1
        13        12        11        40     9      180.000000       17.011611         2
        13        12        11        40     9        0.000000        0.274802         3
        13        12        11        40     9      180.000000       -0.285276         4
        13        23        22        44     9        0.000000        0.089207         1
        13        23        22        44     9      180.000000        3.450139         2
        13        23        22        44     9        0.000000        0.001056         3
        13        23        22        44     9      180.000000        0.708331         4
        13        23        24        45     9        0.000000        0.113944         1
        13        23        24        45     9      180.000000       12.658610         2
        13        23        24        45     9        0.000000       -0.498566         3
        13        23        24        45     9      180.000000        0.155173         4
        14         1        21        20     9        0.000000        0.153689         1
        14         1        21        20     9      180.000000       17.447546         2
        14         1        21        20     9        0.000000        0.359688         3
        14         1        21        20     9      180.000000       -0.488740         4
        14         1        22        23     9        0.000000        0.545428         1
        14         1        22        23     9      180.000000        5.926553         2
        14         1        22        23     9        0.000000        0.395185         3
        14         1        22        23     9      180.000000       -0.687243         4
        14         1        22        44     9        0.000000        1.378413         1
        14         1        22        44     9      180.000000        9.294271         2
        14         1        22        44     9        0.000000       -0.416125         3
        14         1        22        44     9      180.000000        0.400221         4
        14        15        17        18     9        0.000000       -0.165030         1
        14        15        17        18     9      180.000000        9.561850         2
        14        15        17        18     9        0.000000        0.039319         3
        14        15        17        18     9      180.000000       -0.380817         4
        14        15        17        20     9        0.000000       -0.172718         1
        14        15        17        20     9      180.000000       11.599979         2
        14        15        17        20     9        0.000000       -0.670492         3
        14        15        17        20     9      180.000000       -0.200548         4
        15        14         1        21     9        0.000000        0.173633         1
        15        14         1        21     9      180.000000       11.905287         2
        15        14         1        21     9        0.000000        0.343056         3
        15        14         1        21     9      180.000000       -0.334025         4
        15        14         1        22     9        0.000000        0.515861         1
        15        14         1        22     9      180.000000       17.819522         2
        15        14         1        22     9        0.000000        0.366362         3
        15        14         1        22     9      180.000000       -0.687579         4
        15        16         3        26     9        0.000000        0.330028         1
        15        16         3        26     9      180.000000       -0.016973         2
        15        16         3        26     9        0.000000        0.257749         3
        15        16         3        26     9      180.000000        0.011148         4
        15        16         3        27     9        0.000000        0.330028         1
        15        16         3        27     9      180.000000       -0.016973         2
        15        16         3        27     9        0.000000        0.257749         3
        15        16         3        27     9      180.000000        0.011148         4
        15        17        20        19     9        0.000000       -0.088593         1
        15        17        20        19     9      180.000000       10.631774         2
        15        17        20        19     9        0.000000       -2.991438         3
        15        17        20        19     9      180.000000       -0.135961         4
        15        17        20        21     9        0.000000       -0.102990         1
        15        17        20        21     9      180.000000       10.763070         2
        15        17        20        21     9        0.000000       -1.201859         3
        15        17        20        21     9      180.000000       -0.091120         4
        16         3         4        28     9        0.000000        0.237590         1
        16         3         4        28     9      180.000000       -0.264598         2
        16         3         4        28     9        0.000000        0.461628         3
        16         3         4        28     9      180.000000        0.034392         4
        16        15        17        18     9        0.000000       -0.348585         1
        16        15        17        18     9      180.000000       12.825177         2
        16        15        17        18     9        0.000000        0.091772         3
        16        15        17        18     9      180.000000       -0.567774         4
        16        15        17        20     9        0.000000        0.837436         1
        16        15        17        20     9      180.000000       14.145640         2
        16        15        17        20     9        0.000000        0.173329         3
        16        15        17        20     9      180.000000       -0.625288         4
        17        18         2        19     9        0.000000       -0.016017         1
        17        18         2        19     9      180.000000       43.500830         2
        17        18         2        19     9        0.000000       -4.835668         3
        17        18         2        19     9      180.000000       -0.194644         4
        17        18         2        25     9        0.000000        2.054717         1
        17        18         2        25     9      180.000000       29.581794         2
        17        18         2        25     9        0.000000        0.367800         3
        17        18         2        25     9      180.000000       -0.343969         4
        17        20        19        43     9        0.000000        2.008825         1
        17        20        19        43     9      180.000000        3.799396         2
        17        20        19        43     9        0.000000        0.501527         3
        17        20        19        43     9      180.000000        0.307059         4
        18         2        19        20     9        0.000000       -0.074250         1
        18         2        19        20     9      180.000000       25.926530         2
        18         2        19        20     9        0.000000       -5.554007         3
        18         2        19        20     9      180.000000       -0.828937         4
        18         2        19        43     9        0.000000        1.924753         1
        18         2        19        43     9      180.000000        4.938636         2
        18         2        19        43     9        0.000000        0.588703         3
        18         2        19        43     9      180.000000        0.078464         4
        18        17        20        19     9        0.000000        0.374296         1
        18        17        20        19     9      180.000000       20.693665         2
        18        17        20        19     9        0.000000       -6.669615         3
        18        17        20        19     9      180.000000       -0.371080         4
        18        17        20        21     9        0.000000        0.457400         1
        18        17        20        21     9      180.000000       13.066750         2
        18        17        20        21     9        0.000000       -1.228916         3
        18        17        20        21     9      180.000000       -0.088365         4
        20        19         2        25     9        0.000000        1.931904         1
        20        19         2        25     9      180.000000       12.607186         2
        20        19         2        25     9        0.000000        0.493422         3
        20        19         2        25     9      180.000000       -0.529070         4
        20        21         1        22     9        0.000000        0.496247         1
        20        21         1        22     9      180.000000       23.889184         2
        20        21         1        22     9        0.000000        0.529283         3
        20        21         1        22     9      180.000000       -1.184584         4
        21         1        22        23     9        0.000000        0.328192         1
        21         1        22        23     9      180.000000        5.454373         2
        21         1        22        23     9        0.000000        0.046310         3
        21         1        22        23     9      180.000000       -0.594632         4
        21         1        22        44     9        0.000000        0.210727         1
        21         1        22        44     9      180.000000        9.252871         2
        21         1        22        44     9        0.000000       -0.547111         3
        21         1        22        44     9      180.000000        0.394522         4
        21        20        19        43     9        0.000000       -0.782489         1
        21        20        19        43     9      180.000000        2.339441         2
        21        20        19        43     9        0.000000        0.347015         3
        21        20        19        43     9      180.000000       -0.049407         4
        22        23        13        42     9        0.000000       -0.128286         1
        22        23        13        42     9      180.000000       13.698670         2
        22        23        13        42     9        0.000000       -0.126355         3
        22        23        13        42     9      180.000000        0.142285         4
        22        23        24        45     9        0.000000       -0.128286         1
        22        23        24        45     9      180.000000       13.698670         2
        22        23        24        45     9        0.000000       -0.126355         3
        22        23        24        45     9      180.000000        0.142285         4
        23        13        12        41     9        0.000000        0.048266         1
        23        13        12        41     9      180.000000       14.212149         2
        23        13        12        41     9        0.000000       -0.511988         3
        23        13        12        41     9      180.000000        0.087734         4
        23        24        10        39     9        0.000000        0.048266         1
        23        24        10        39     9      180.000000       14.212149         2
        23        24        10        39     9        0.000000       -0.511988         3
        23        24        10        39     9      180.000000        0.087734         4
        24        10        11        40     9        0.000000        0.470829         1
        24        10        11        40     9      180.000000       17.011611         2
        24        10        11        40     9        0.000000        0.274802         3
        24        10        11        40     9      180.000000       -0.285276         4
        24        23        13        42     9        0.000000        0.113944         1
        24        23        13        42     9      180.000000       12.658610         2
        24        23        13        42     9        0.000000       -0.498566         3
        24        23        13        42     9      180.000000        0.155173         4
        24        23        22        44     9        0.000000        0.089207         1
        24        23        22        44     9      180.000000        3.450139         2
        24        23        22        44     9        0.000000        0.001056         3
        24        23        22        44     9      180.000000        0.708331         4
        25         2        19        43     9        0.000000       -1.416015         1
        25         2        19        43     9      180.000000        1.549791         2
        25         2        19        43     9        0.000000        0.041555         3
        25         2        19        43     9      180.000000       -0.094404         4
        26         3         4        28     9        0.000000       -0.056760         1
        26         3         4        28     9      180.000000        0.062240         2
        26         3         4        28     9        0.000000        0.670401         3
        26         3         4        28     9      180.000000       -0.042287         4
        27         3         4        28     9        0.000000       -0.056760         1
        27         3         4        28     9      180.000000        0.062240         2
        27         3         4        28     9        0.000000        0.670401         3
        27         3         4        28     9      180.000000       -0.042287         4
        28         4         5        29     9        0.000000        0.066513         1
        28         4         5        29     9      180.000000        0.018410         2
        28         4         5        29     9        0.000000        0.425268         3
        28         4         5        29     9      180.000000       -0.019077         4
        28         4         5        30     9        0.000000        0.066513         1
        28         4         5        30     9      180.000000        0.018410         2
        28         4         5        30     9        0.000000        0.425268         3
        28         4         5        30     9      180.000000       -0.019077         4
        28         4         9        37     9        0.000000        0.066513         1
        28         4         9        37     9      180.000000        0.018410         2
        28         4         9        37     9        0.000000        0.425268         3
        28         4         9        37     9      180.000000       -0.019077         4
        28         4         9        38     9        0.000000        0.066513         1
        28         4         9        38     9      180.000000        0.018409         2
        28         4         9        38     9        0.000000        0.425268         3
        28         4         9        38     9      180.000000       -0.019077         4
        29         5         6        31     9        0.000000       -0.002936         1
        29         5         6        31     9      180.000000       -0.002515         2
        29         5         6        31     9        0.000000        0.347362         3
        29         5         6        31     9      180.000000        0.018133         4
        29         5         6        32     9        0.000000       -0.002936         1
        29         5         6        32     9      180.000000       -0.002515         2
        29         5         6        32     9        0.000000        0.347362         3
        29         5         6        32     9      180.000000        0.018133         4
        30         5         6        31     9        0.000000       -0.002936         1
        30         5         6        31     9      180.000000       -0.002515         2
        30         5         6        31     9        0.000000        0.347362         3
        30         5         6        31     9      180.000000        0.018133         4
        30         5         6        32     9        0.000000       -0.002936         1
        30         5         6        32     9      180.000000       -0.002515         2
        30         5         6        32     9        0.000000        0.347362         3
        30         5         6        32     9      180.000000        0.018133         4
        31         6         7        33     9        0.000000       -0.011526         1
        31         6         7        33     9      180.000000        0.002877         2
        31         6         7        33     9        0.000000        0.360739         3
        31         6         7        33     9      180.000000        0.004206         4
        31         6         7        34     9        0.000000       -0.011526         1
        31         6         7        34     9      180.000000        0.002877         2
        31         6         7        34     9        0.000000        0.360739         3
        31         6         7        34     9      180.000000        0.004206         4
        32         6         7        33     9        0.000000       -0.011526         1
        32         6         7        33     9      180.000000        0.002877         2
        32         6         7        33     9        0.000000        0.360739         3
        32         6         7        33     9      180.000000        0.004206         4
        32         6         7        34     9        0.000000       -0.011526         1
        32         6         7        34     9      180.000000        0.002877         2
        32         6         7        34     9        0.000000        0.360739         3
        32         6         7        34     9      180.000000        0.004206         4
        33         7         8        35     9        0.000000       -0.011526         1
        33         7         8        35     9      180.000000        0.002877         2
        33         7         8        35     9        0.000000        0.360739         3
        33         7         8        35     9      180.000000        0.004206         4
        33         7         8        36     9        0.000000       -0.011526         1
        33         7         8        36     9      180.000000        0.002877         2
        33         7         8        36     9        0.000000        0.360739         3
        33         7         8        36     9      180.000000        0.004206         4
        34         7         8        35     9        0.000000       -0.011526         1
        34         7         8        35     9      180.000000        0.002877         2
        34         7         8        35     9        0.000000        0.360739         3
        34         7         8        35     9      180.000000        0.004206         4
        34         7         8        36     9        0.000000       -0.011526         1
        34         7         8        36     9      180.000000        0.002877         2
        34         7         8        36     9        0.000000        0.360739         3
        34         7         8        36     9      180.000000        0.004206         4
        35         8         9        37     9        0.000000       -0.002936         1
        35         8         9        37     9      180.000000       -0.002515         2
        35         8         9        37     9        0.000000        0.347362         3
        35         8         9        37     9      180.000000        0.018133         4
        35         8         9        38     9        0.000000       -0.002937         1
        35         8         9        38     9      180.000000       -0.002514         2
        35         8         9        38     9        0.000000        0.347362         3
        35         8         9        38     9      180.000000        0.018133         4
        36         8         9        37     9        0.000000       -0.002936         1
        36         8         9        37     9      180.000000       -0.002515         2
        36         8         9        37     9        0.000000        0.347362         3
        36         8         9        37     9      180.000000        0.018133         4
        36         8         9        38     9        0.000000       -0.002937         1
        36         8         9        38     9      180.000000       -0.002514         2
        36         8         9        38     9        0.000000        0.347362         3
        36         8         9        38     9      180.000000        0.018133         4
        39        10        11        40     9        0.000000        0.063989         1
        39        10        11        40     9      180.000000       12.849198         2
        39        10        11        40     9        0.000000       -0.115336         3
        39        10        11        40     9      180.000000        0.275976         4
        39        10        24        45     9        0.000000       -0.152505         1
        39        10        24        45     9      180.000000       12.210563         2
        39        10        24        45     9        0.000000       -0.694972         3
        39        10        24        45     9      180.000000        0.304392         4
        40        11        12        41     9        0.000000        0.063989         1
        40        11        12        41     9      180.000000       12.849198         2
        40        11        12        41     9        0.000000       -0.115336         3
        40        11        12        41     9      180.000000        0.275976         4
        41        12        13        42     9        0.000000       -0.152505         1
        41        12        13        42     9      180.000000       12.210563         2
        41        12        13        42     9        0.000000       -0.694972         3
        41        12        13        42     9      180.000000        0.304392         4

[ dihedrals ] ; impropers
;       ai        aj        ak        al funct           phase               k        pn
         1        14        21        22     4      180.000000       27.893333         2
         1        21        22        14     4      180.000000       27.893333         2
         1        22        14        21     4      180.000000       27.893333         2
         2        18        19        25     4      180.000000        4.389010         2
         2        19        25        18     4      180.000000        4.389010         2
         2        25        18        19     4      180.000000        4.389010         2
        15        14        16        17     4      180.000000        7.449072         2
        15        16        17        14     4      180.000000        7.449072         2
        15        17        14        16     4      180.000000        7.449072         2

[ pairs ]
;       ai        aj funct
         1        13     1
         1        16     1
         1        17     1
         1        19     1
         1        24     1
         2        15     1
         2        21     1
         3         6     1
         3         8     1
         3        14     1
         3        17     1
         3        29     1
         3        30     1
         3        37     1
         3        38     1
         4         7     1
         4        15     1
         4        31     1
         4        32     1
         4        35     1
         4        36     1
         5         8     1
         5        16     1
         5        26     1
         5        27     1
         5        33     1
         5        34     1
         5        37     1
         5        38     1
         6         9     1
         6        28     1
         6        35     1
         6        36     1
         7        29     1
         7        30     1
         7        37     1
         7        38     1
         8        28     1
         8        31     1
         8        32     1
         9        16     1
         9        26     1
         9        27     1
         9        29     1
         9        30     1
         9        33     1
         9        34     1
        10        13     1
        10        22     1
        10        41     1
        10        46     1
        11        23     1
        11        42     1
        11        45     1
        11        47     1
        11        48     1
        11        49     1
        12        22     1
        12        24     1
        12        39     1
        12        46     1
        13        40     1
        13        44     1
        13        45     1
        14        18     1
        14        20     1
        14        23     1
        14        44     1
        15        19     1
        15        21     1
        15        22     1
        15        26     1
        15        27     1
        16        18     1
        16        20     1
        16        28     1
        17        25     1
        17        43     1
        18        21     1
        18        43     1
        20        22     1
        20        25     1
        21        23     1
        21        43     1
        21        44     1
        22        42     1
        22        45     1
        23        39     1
        23        41     1
        24        40     1
        24        42     1
        24        44     1
        25        43     1
        26        28     1
        27        28     1
        28        29     1
        28        30     1
        28        37     1
        28        38     1
        29        31     1
        29        32     1
        30        31     1
        30        32     1
        31        33     1
        31        34     1
        32        33     1
        32        34     1
        33        35     1
        33        36     1
        34        35     1
        34        36     1
        35        37     1
        35        38     1
        36        37     1
        36        38     1
        39        40     1
        39        45     1
        40        41     1
        41        42     1
