; ITP file created by ByteFF-ML, 2026-01-07 07:32:25.587256

[ atomtypes ]
;name           bonded.type        at.num        mass        charge   ptype           sigma         epsilon
 c0bf                                   6      0.0000       0.00000       A     3.31643e-01     4.14234e-01
 c1bf                                   6      0.0000       0.00000       A     3.31501e-01     4.12866e-01
 n2bf                                   7      0.0000       0.00000       A     3.38612e-01     3.95291e-01
 o3bf                                   8      0.0000       0.00000       A     3.15982e-01     3.09926e-01
 c4bf                                   6      0.0000       0.00000       A     3.31239e-01     4.16408e-01
 c5bf                                   6      0.0000       0.00000       A     3.31414e-01     4.14411e-01
 n6bf                                   7      0.0000       0.00000       A     3.38224e-01     3.92446e-01
 c7bf                                   6      0.0000       0.00000       A     3.31664e-01     4.13669e-01
 c8bf                                   6      0.0000       0.00000       A     3.40048e-01     4.52613e-01
 n9bf                                   7      0.0000       0.00000       A     3.38599e-01     3.91492e-01
 c10bf                                  6      0.0000       0.00000       A     3.31345e-01     4.09248e-01
 c11bf                                  6      0.0000       0.00000       A     3.40004e-01     4.47372e-01
 n12bf                                  7      0.0000       0.00000       A     3.18923e-01     8.93580e-01
 c13bf                                  6      0.0000       0.00000       A     3.31426e-01     4.12337e-01
 c14bf                                  6      0.0000       0.00000       A     3.39430e-01     4.46065e-01
 n15bf                                  7      0.0000       0.00000       A     2.68098e-01     7.07337e+00
 c16bf                                  6      0.0000       0.00000       A     3.31311e-01     4.10574e-01
 n17bf                                  7      0.0000       0.00000       A     2.58504e-01     1.06353e+01
 c18bf                                  6      0.0000       0.00000       A     3.31473e-01     4.13728e-01
 c19bf                                  6      0.0000       0.00000       A     3.31373e-01     4.12506e-01
 c20bf                                  6      0.0000       0.00000       A     3.39763e-01     4.49437e-01
 c21bf                                  6      0.0000       0.00000       A     3.39089e-01     4.49819e-01
 c22bf                                  6      0.0000       0.00000       A     3.39791e-01     4.48492e-01
 c23bf                                  6      0.0000       0.00000       A     3.39791e-01     4.48492e-01
 c24bf                                  6      0.0000       0.00000       A     3.39089e-01     4.49819e-01
 c25bf                                  6      0.0000       0.00000       A     3.40042e-01     4.52313e-01
 c26bf                                  6      0.0000       0.00000       A     3.40042e-01     4.52313e-01
 c27bf                                  6      0.0000       0.00000       A     3.31422e-01     4.12739e-01
 c28bf                                  6      0.0000       0.00000       A     3.31455e-01     4.13147e-01
 c29bf                                  6      0.0000       0.00000       A     3.31423e-01     4.11096e-01
 c30bf                                  6      0.0000       0.00000       A     3.40304e-01     4.55481e-01
 c31bf                                  6      0.0000       0.00000       A     3.39748e-01     4.52248e-01
 c32bf                                  6      0.0000       0.00000       A     3.39701e-01     4.44430e-01
 c33bf                                  6      0.0000       0.00000       A     3.39924e-01     4.49721e-01
 c34bf                                  6      0.0000       0.00000       A     3.39792e-01     4.50711e-01
 c35bf                                  6      0.0000       0.00000       A     3.39624e-01     4.53182e-01
 c36bf                                  6      0.0000       0.00000       A     3.39613e-01     4.51699e-01
 c37bf                                  6      0.0000       0.00000       A     3.39918e-01     4.46033e-01
 f38bf                                  9      0.0000       0.00000       A     3.03449e-01     3.49818e-01
 f39bf                                  9      0.0000       0.00000       A     3.03072e-01     3.48669e-01
 h40bf                                  1      0.0000       0.00000       A     2.62673e-01     6.72456e-02
 h41bf                                  1      0.0000       0.00000       A     2.53621e-01     6.72663e-02
 h42bf                                  1      0.0000       0.00000       A     1.10411e-01     4.09392e-02
 h43bf                                  1      0.0000       0.00000       A     2.41558e-01     8.71262e-02
 h44bf                                  1      0.0000       0.00000       A     2.41558e-01     8.71262e-02
 h45bf                                  1      0.0000       0.00000       A     2.41770e-01     8.68852e-02
 h46bf                                  1      0.0000       0.00000       A     2.41770e-01     8.68852e-02
 h47bf                                  1      0.0000       0.00000       A     1.89725e-01     8.84605e-02
 h48bf                                  1      0.0000       0.00000       A     1.89725e-01     8.84605e-02
 h49bf                                  1      0.0000       0.00000       A     2.41770e-01     8.68852e-02
 h50bf                                  1      0.0000       0.00000       A     2.41770e-01     8.68852e-02
 h51bf                                  1      0.0000       0.00000       A     2.60102e-01     8.79977e-02
 h52bf                                  1      0.0000       0.00000       A     2.60102e-01     8.79977e-02
 h53bf                                  1      0.0000       0.00000       A     2.60102e-01     8.79977e-02
 h54bf                                  1      0.0000       0.00000       A     2.60102e-01     8.79977e-02
 h55bf                                  1      0.0000       0.00000       A     2.62538e-01     6.73158e-02
 h56bf                                  1      0.0000       0.00000       A     2.62489e-01     6.75951e-02
 h57bf                                  1      0.0000       0.00000       A     2.60418e-01     8.98906e-02
 h58bf                                  1      0.0000       0.00000       A     2.60324e-01     8.57376e-02
 h59bf                                  1      0.0000       0.00000       A     2.59807e-01     8.76465e-02
 h60bf                                  1      0.0000       0.00000       A     2.59807e-01     8.76465e-02
 h61bf                                  1      0.0000       0.00000       A     2.40987e-01     8.86808e-02
 h62bf                                  1      0.0000       0.00000       A     1.88430e-01     8.58095e-02
 h63bf                                  1      0.0000       0.00000       A     1.88430e-01     8.58095e-02
 h64bf                                  1      0.0000       0.00000       A     1.88458e-01     8.70975e-02
 h65bf                                  1      0.0000       0.00000       A     1.88458e-01     8.70975e-02
 h66bf                                  1      0.0000       0.00000       A     2.59774e-01     8.76577e-02
 h67bf                                  1      0.0000       0.00000       A     2.59774e-01     8.76577e-02
 h68bf                                  1      0.0000       0.00000       A     2.60014e-01     8.63569e-02
 h69bf                                  1      0.0000       0.00000       A     2.60014e-01     8.63569e-02
 h70bf                                  1      0.0000       0.00000       A     2.60324e-01     8.57376e-02
 h71bf                                  1      0.0000       0.00000       A     1.10411e-01     4.09392e-02
 h72bf                                  1      0.0000       0.00000       A     1.11153e-01     4.05769e-02
 h73bf                                  1      0.0000       0.00000       A     2.60259e-01     8.55397e-02
 h74bf                                  1      0.0000       0.00000       A     2.60122e-01     8.65532e-02
 h75bf                                  1      0.0000       0.00000       A     2.60122e-01     8.65532e-02

[ moleculetype ]
;name             nrexcl
 MRTX_438_7RPZ_conf1       3

[ atoms ]
;       nr            type      resi   res      atom      cgnr      charge          mass ; qtot
         1            c0bf         1   UNL        c0         1    -0.21162       12.0110 ; qtot   -0.212
         2            c1bf         1   UNL        c1         2    -0.07480       12.0110 ; qtot   -0.286
         3            n2bf         1   UNL        n2         3    -0.21469       14.0070 ; qtot   -0.501
         4            o3bf         1   UNL        o3         4    -0.43392       15.9990 ; qtot   -0.935
         5            c4bf         1   UNL        c4         5     0.09022       12.0110 ; qtot   -0.845
         6            c5bf         1   UNL        c5         6    -0.05293       12.0110 ; qtot   -0.898
         7            n6bf         1   UNL        n6         7    -0.30392       14.0070 ; qtot   -1.202
         8            c7bf         1   UNL        c7         8     0.40705       12.0110 ; qtot   -0.795
         9            c8bf         1   UNL        c8         9    -0.00929       12.0110 ; qtot   -0.804
        10            n9bf         1   UNL        n9        10    -0.65424       14.0070 ; qtot   -1.458
        11           c10bf         1   UNL       c10        11     0.42244       12.0110 ; qtot   -1.036
        12           c11bf         1   UNL       c11        12    -0.12826       12.0110 ; qtot   -1.164
        13           n12bf         1   UNL       n12        13    -0.75767       14.0070 ; qtot   -1.922
        14           c13bf         1   UNL       c13        14     0.39392       12.0110 ; qtot   -1.528
        15           c14bf         1   UNL       c14        15    -0.08556       12.0110 ; qtot   -1.613
        16           n15bf         1   UNL       n15        16    -0.84599       14.0070 ; qtot   -2.459
        17           c16bf         1   UNL       c16        17     0.40777       12.0110 ; qtot   -2.051
        18           n17bf         1   UNL       n17        18    -0.69859       14.0070 ; qtot   -2.750
        19           c18bf         1   UNL       c18        19     0.12737       12.0110 ; qtot   -2.623
        20           c19bf         1   UNL       c19        20    -0.14323       12.0110 ; qtot   -2.766
        21           c20bf         1   UNL       c20        21     0.18072       12.0110 ; qtot   -2.585
        22           c21bf         1   UNL       c21        22     0.18761       12.0110 ; qtot   -2.398
        23           c22bf         1   UNL       c22        23     0.12189       12.0110 ; qtot   -2.276
        24           c23bf         1   UNL       c23        24     0.12189       12.0110 ; qtot   -2.154
        25           c24bf         1   UNL       c24        25     0.18761       12.0110 ; qtot   -1.966
        26           c25bf         1   UNL       c25        26    -0.08895       12.0110 ; qtot   -2.055
        27           c26bf         1   UNL       c26        27    -0.08895       12.0110 ; qtot   -2.144
        28           c27bf         1   UNL       c27        28    -0.07401       12.0110 ; qtot   -2.218
        29           c28bf         1   UNL       c28        29    -0.11999       12.0110 ; qtot   -2.338
        30           c29bf         1   UNL       c29        30    -0.08585       12.0110 ; qtot   -2.424
        31           c30bf         1   UNL       c30        31     0.12456       12.0110 ; qtot   -2.299
        32           c31bf         1   UNL       c31        32    -0.11235       12.0110 ; qtot   -2.412
        33           c32bf         1   UNL       c32        33     0.17701       12.0110 ; qtot   -2.235
        34           c33bf         1   UNL       c33        34     0.08739       12.0110 ; qtot   -2.147
        35           c34bf         1   UNL       c34        35     0.12051       12.0110 ; qtot   -2.027
        36           c35bf         1   UNL       c35        36    -0.09442       12.0110 ; qtot   -2.121
        37           c36bf         1   UNL       c36        37    -0.09540       12.0110 ; qtot   -2.217
        38           c37bf         1   UNL       c37        38    -0.11782       12.0110 ; qtot   -2.334
        39           f38bf         1   UNL       f38        39    -0.14740       18.9980 ; qtot   -2.482
        40           f39bf         1   UNL       f39        40    -0.23785       18.9980 ; qtot   -2.720
        41           h40bf         1   UNL       h40        41     0.12066        1.0080 ; qtot   -2.599
        42           h41bf         1   UNL       h41        42     0.03312        1.0080 ; qtot   -2.566
        43           h42bf         1   UNL       h42        43     0.51984        1.0080 ; qtot   -2.046
        44           h43bf         1   UNL       h43        44     0.08909        1.0080 ; qtot   -1.957
        45           h44bf         1   UNL       h44        45     0.08909        1.0080 ; qtot   -1.868
        46           h45bf         1   UNL       h45        46     0.09494        1.0080 ; qtot   -1.773
        47           h46bf         1   UNL       h46        47     0.09494        1.0080 ; qtot   -1.678
        48           h47bf         1   UNL       h47        48     0.12104        1.0080 ; qtot   -1.557
        49           h48bf         1   UNL       h48        49     0.12104        1.0080 ; qtot   -1.436
        50           h49bf         1   UNL       h49        50     0.09494        1.0080 ; qtot   -1.341
        51           h50bf         1   UNL       h50        51     0.09494        1.0080 ; qtot   -1.246
        52           h51bf         1   UNL       h51        52     0.09222        1.0080 ; qtot   -1.154
        53           h52bf         1   UNL       h52        53     0.09222        1.0080 ; qtot   -1.062
        54           h53bf         1   UNL       h53        54     0.09222        1.0080 ; qtot   -0.969
        55           h54bf         1   UNL       h54        55     0.09222        1.0080 ; qtot   -0.877
        56           h55bf         1   UNL       h55        56     0.12677        1.0080 ; qtot   -0.750
        57           h56bf         1   UNL       h56        57     0.11943        1.0080 ; qtot   -0.631
        58           h57bf         1   UNL       h57        58     0.09006        1.0080 ; qtot   -0.541
        59           h58bf         1   UNL       h58        59     0.07551        1.0080 ; qtot   -0.465
        60           h59bf         1   UNL       h59        60     0.10809        1.0080 ; qtot   -0.357
        61           h60bf         1   UNL       h60        61     0.10809        1.0080 ; qtot   -0.249
        62           h61bf         1   UNL       h61        62     0.10960        1.0080 ; qtot   -0.140
        63           h62bf         1   UNL       h62        63     0.11991        1.0080 ; qtot   -0.020
        64           h63bf         1   UNL       h63        64     0.11991        1.0080 ; qtot    0.100
        65           h64bf         1   UNL       h64        65     0.10453        1.0080 ; qtot    0.205
        66           h65bf         1   UNL       h65        66     0.10453        1.0080 ; qtot    0.309
        67           h66bf         1   UNL       h66        67     0.08953        1.0080 ; qtot    0.399
        68           h67bf         1   UNL       h67        68     0.08953        1.0080 ; qtot    0.488
        69           h68bf         1   UNL       h68        69     0.09485        1.0080 ; qtot    0.583
        70           h69bf         1   UNL       h69        70     0.09485        1.0080 ; qtot    0.678
        71           h70bf         1   UNL       h70        71     0.07551        1.0080 ; qtot    0.753
        72           h71bf         1   UNL       h71        72     0.51984        1.0080 ; qtot    1.273
        73           h72bf         1   UNL       h72        73     0.50958        1.0080 ; qtot    1.783
        74           h73bf         1   UNL       h73        74     0.09220        1.0080 ; qtot    1.875
        75           h74bf         1   UNL       h74        75     0.06242        1.0080 ; qtot    1.938
        76           h75bf         1   UNL       h75        76     0.06248        1.0080 ; qtot    2.000

[ bonds ]
;       ai        aj funct               r               k
         1         5     1        0.142347   252767.559912
         1        11     1        0.143822   227380.327832
         1        14     1        0.141689   262713.446826
         2         6     1        0.140786   260329.915186
         2        15     1        0.149219   205171.980664
         2        30     1        0.139523   305387.590967
         3         5     1        0.135885   295021.388770
         3         8     1        0.131250   349439.104639
         4         8     1        0.136281   239610.892236
         4        21     1        0.143140   191641.322021
         5        19     1        0.141419   264582.533398
         6         9     1        0.152040   177376.918384
         6        20     1        0.140239   282996.040576
         7         8     1        0.134328   270149.980762
         7        11     1        0.132178   353485.944824
         9        12     1        0.153307   178861.479932
         9        75     1        0.109549   295894.757910
         9        76     1        0.109549   295894.757910
        10        14     1        0.131816   376284.122607
        10        17     1        0.136414   251733.843262
        11        13     1        0.140901   232824.533105
        12        15     1        0.152831   160618.458496
        12        38     1        0.150927   199230.721094
        12        74     1        0.108532   321222.922656
        13        22     1        0.146948   183317.692749
        13        25     1        0.146948   183317.692749
        14        42     1        0.108667   316700.326123
        15        38     1        0.152380   176935.394531
        15        58     1        0.108581   317953.278857
        16        23     1        0.152806   112905.204248
        16        24     1        0.152806   112905.204248
        16        43     1        0.102639   386120.761768
        16        72     1        0.102639   386120.761768
        17        19     1        0.138986   286811.208105
        17        20     1        0.148453   206590.452173
        18        31     1        0.154603    75871.530835
        18        34     1        0.151089   131002.740771
        18        35     1        0.151994   120527.316357
        18        73     1        0.102598   380647.495264
        19        39     1        0.134915   301785.964746
        20        28     1        0.140752   285470.637549
        21        31     1        0.153378   172369.052930
        21        44     1        0.109269   303724.231348
        21        45     1        0.109269   303724.231348
        22        23     1        0.153876   169198.556958
        22        46     1        0.109342   300785.701709
        22        47     1        0.109342   300785.701709
        23        27     1        0.153955   164525.878833
        23        48     1        0.109058   317545.502295
        24        25     1        0.153876   169198.556958
        24        26     1        0.153955   164525.878833
        24        49     1        0.109058   317545.502295
        25        50     1        0.109342   300785.701709
        25        51     1        0.109342   300785.701709
        26        27     1        0.155779   153880.211279
        26        52     1        0.109165   310874.034619
        26        53     1        0.109165   310874.034619
        27        54     1        0.109165   310874.034619
        27        55     1        0.109165   310874.034619
        28        29     1        0.139655   315537.927979
        28        56     1        0.108482   322152.626660
        29        30     1        0.140068   303982.309375
        29        57     1        0.108596   320426.420215
        30        41     1        0.108626   319474.243555
        31        32     1        0.153760   162016.078955
        31        37     1        0.153927   159429.616675
        32        33     1        0.153397   174436.064868
        32        60     1        0.109152   311591.065576
        32        61     1        0.109152   311591.065576
        33        34     1        0.153608   172958.168506
        33        40     1        0.139879   219946.296533
        33        62     1        0.109141   313342.349463
        34        63     1        0.108976   317000.514844
        34        64     1        0.108976   317000.514844
        35        36     1        0.154103   167639.503662
        35        65     1        0.109007   315113.016016
        35        66     1        0.109007   315113.016016
        36        37     1        0.154689   165698.798267
        36        67     1        0.109137   312886.588672
        36        68     1        0.109137   312886.588672
        37        69     1        0.109185   309749.354785
        37        70     1        0.109185   309749.354785
        38        59     1        0.108625   318531.030420
        38        71     1        0.108625   318531.030420

[ angles ]
;       ai        aj        ak funct           theta             cth
         1         5         3     1      123.108498      750.518982
         1         5        19     1      116.621323      706.485344
         1        11         7     1      120.872849      576.881066
         1        11        13     1      121.465836      413.946200
         1        14        10     1      124.054810      614.017705
         1        14        42     1      120.299072      403.874652
         2         6         9     1      110.575150      361.774078
         2         6        20     1      119.923141      667.822096
         2        15        12     1      105.886887      354.658322
         2        15        38     1      115.339371      437.263656
         2        15        58     1      120.247841      397.265903
         2        30        29     1      118.511917      738.084963
         2        30        41     1      120.913002      435.280859
         3         5        19     1      120.220840      364.949170
         3         8         4     1      116.353943      505.498238
         3         8         7     1      128.384598      623.368373
         4         8         7     1      114.447853      505.929528
         4        21        31     1      107.642883      574.560318
         4        21        44     1      109.432541      450.682896
         4        21        45     1      109.432541      450.682896
         5         1        11     1      115.034470      912.934423
         5         1        14     1      117.464088      814.421065
         5         3         8     1      115.314819      457.292315
         5        19        17     1      121.697830      629.764015
         5        19        39     1      117.635925      473.448144
         6         2        15     1      110.463730      363.686041
         6         2        30     1      121.114647      662.766834
         6         9        12     1      103.935959      482.288421
         6         9        75     1      111.146019      461.774780
         6         9        76     1      111.146019      461.774780
         6        20        17     1      121.882736      444.734282
         6        20        28     1      118.263084      730.185888
         7        11        13     1      117.327171      560.382434
         8         4        21     1      117.582077      530.563485
         8         7        11     1      117.677528      860.031811
         9         6        20     1      129.442230      418.404086
         9        12        15     1      108.246597      317.991725
         9        12        38     1      117.960304      457.138582
         9        12        74     1      118.261147      378.503725
        10        14        42     1      116.193237      382.199424
        10        17        19     1      120.033287      623.529832
        10        17        20     1      116.745911      528.562812
        11         1        14     1      126.884140      517.102268
        11        13        22     1      116.649673      545.542373
        11        13        25     1      116.649673      545.542373
        12         9        75     1      111.273849      458.439985
        12         9        76     1      111.273849      458.439985
        12        15        38     1       59.363686      167.360000
        12        15        58     1      122.055679      376.118559
        12        38        15     1       60.880993      167.360000
        12        38        59     1      118.068459      376.520386
        12        38        71     1      118.068459      376.520386
        13        22        23     1      110.414001      573.649664
        13        22        46     1      109.994041      435.580952
        13        22        47     1      109.994041      435.580952
        13        25        24     1      110.414001      573.649664
        13        25        50     1      109.994041      435.580952
        13        25        51     1      109.994041      435.580952
        14        10        17     1      119.869888      621.433427
        15         2        30     1      129.035187      449.868103
        15        12        38     1       60.416096      167.360000
        15        12        74     1      119.740562      385.816787
        15        38        59     1      117.466675      365.641864
        15        38        71     1      117.466675      365.641864
        16        23        22     1      106.602722      674.110546
        16        23        27     1      101.418633      536.716875
        16        23        48     1      108.498741      494.510641
        16        24        25     1      106.602722      674.110546
        16        24        26     1      101.418633      536.716875
        16        24        49     1      108.498741      494.510641
        17        19        39     1      120.577110      442.876362
        17        20        28     1      119.793961      570.851755
        18        31        21     1      108.717491      643.236691
        18        31        32     1      102.070175      511.739092
        18        31        37     1      102.118637      482.246540
        18        34        33     1      103.586441      537.538596
        18        34        63     1      109.339928      499.180612
        18        34        64     1      109.339928      499.180612
        18        35        36     1      103.655380      527.120572
        18        35        65     1      108.214012      502.612098
        18        35        66     1      108.214012      502.612098
        19        17        20     1      122.681969      425.323398
        20        28        29     1      121.248863      667.931651
        20        28        56     1      118.994934      433.046649
        21        31        32     1      112.505470      560.596626
        21        31        37     1      112.684364      558.300074
        22        13        25     1      112.989647      531.622350
        22        23        27     1      113.199745      580.112915
        22        23        48     1      110.856812      458.517267
        23        16        24     1      101.779678      586.160996
        23        16        43     1      111.672134      452.606639
        23        16        72     1      111.672134      452.606639
        23        22        46     1      109.425522      473.224279
        23        22        47     1      109.425522      473.224279
        23        27        26     1      105.201950      510.005282
        23        27        54     1      110.206017      481.946958
        23        27        55     1      110.206017      481.946958
        24        16        43     1      111.672134      452.606639
        24        16        72     1      111.672134      452.606639
        24        25        50     1      109.425522      473.224279
        24        25        51     1      109.425522      473.224279
        24        26        27     1      105.201950      510.005282
        24        26        52     1      110.206017      481.946958
        24        26        53     1      110.206017      481.946958
        25        24        26     1      113.199745      580.112915
        25        24        49     1      110.856812      458.517267
        26        24        49     1      114.036781      411.209708
        26        27        54     1      111.675735      437.142355
        26        27        55     1      111.675735      437.142355
        27        23        48     1      114.036781      411.209708
        27        26        52     1      111.675735      437.142355
        27        26        53     1      111.675735      437.142355
        28        29        30     1      120.673424      699.196861
        28        29        57     1      119.653809      445.065339
        29        28        56     1      119.840294      422.611357
        29        30        41     1      120.493530      435.049078
        30        29        57     1      119.882851      442.947610
        31        18        34     1      106.961525      499.233442
        31        18        35     1      107.082741      492.467768
        31        18        73     1      106.612015      451.884864
        31        21        44     1      110.294388      462.267327
        31        21        45     1      110.294388      462.267327
        31        32        33     1      105.178627      583.889279
        31        32        60     1      111.192856      463.922260
        31        32        61     1      111.192856      463.922260
        31        37        36     1      104.866623      500.165834
        31        37        69     1      110.511856      470.735305
        31        37        70     1      110.511856      470.735305
        32        31        37     1      117.878723      461.475996
        32        33        34     1      104.995834      493.554436
        32        33        40     1      110.063248      631.969208
        32        33        62     1      113.534203      423.018450
        33        32        60     1      110.335831      484.213313
        33        32        61     1      110.335831      484.213313
        33        34        63     1      112.470810      446.780922
        33        34        64     1      112.470810      446.780922
        34        18        35     1      119.321213      474.717690
        34        18        73     1      107.709152      471.064063
        34        33        40     1      108.126175      615.266853
        34        33        62     1      112.784157      426.461363
        35        18        73     1      107.864548      463.771112
        35        36        37     1      104.779640      513.607643
        35        36        67     1      110.732254      474.671276
        35        36        68     1      110.732254      474.671276
        36        35        65     1      113.711220      427.259015
        36        35        66     1      113.711220      427.259015
        36        37        69     1      111.623489      463.676178
        36        37        70     1      111.623489      463.676178
        37        36        67     1      111.620422      467.529887
        37        36        68     1      111.620422      467.529887
        38        12        74     1      117.589859      341.965804
        38        15        58     1      118.555885      346.716504
        40        33        62     1      107.480637      456.823231
        43        16        72     1      107.850487      393.501765
        44        21        45     1      108.647232      342.845238
        46        22        47     1      107.831497      345.579975
        50        25        51     1      107.831497      345.579975
        52        26        53     1      107.532188      357.637353
        54        27        55     1      107.532188      357.637353
        59        38        71     1      114.710609      309.659892
        60        32        61     1      108.049950      357.037486
        63        34        64     1      109.831078      344.368846
        65        35        66     1      108.998703      348.234047
        67        36        68     1      107.379738      358.405286
        69        37        70     1      107.462135      360.309907
        75         9        76     1      106.816849      361.897773

[ dihedrals ] ; propers for gromacs 4.5 or higher, use funct 9
;       ai        aj        ak        al funct           phase               k        pn
         1         5         3         8     9        0.000000       -0.297842         1
         1         5         3         8     9      180.000000       13.517764         2
         1         5         3         8     9        0.000000       -0.475932         3
         1         5         3         8     9      180.000000       -0.368030         4
         1         5        19        17     9        0.000000       -0.071089         1
         1         5        19        17     9      180.000000       12.181583         2
         1         5        19        17     9        0.000000       -0.906029         3
         1         5        19        17     9      180.000000       -0.097715         4
         1         5        19        39     9        0.000000        0.332479         1
         1         5        19        39     9      180.000000       18.719765         2
         1         5        19        39     9        0.000000        0.153676         3
         1         5        19        39     9      180.000000       -0.559850         4
         1        11         7         8     9        0.000000        0.225022         1
         1        11         7         8     9      180.000000       18.721847         2
         1        11         7         8     9        0.000000       -0.984817         3
         1        11         7         8     9      180.000000       -0.497124         4
         1        11        13        22     9        0.000000        5.434533         1
         1        11        13        22     9      180.000000        7.654269         2
         1        11        13        22     9        0.000000       -0.102297         3
         1        11        13        22     9      180.000000        0.277433         4
         1        11        13        25     9        0.000000        5.434533         1
         1        11        13        25     9      180.000000        7.654269         2
         1        11        13        25     9        0.000000       -0.102297         3
         1        11        13        25     9      180.000000        0.277433         4
         1        14        10        17     9        0.000000       -0.310487         1
         1        14        10        17     9      180.000000       25.035239         2
         1        14        10        17     9        0.000000       -1.117197         3
         1        14        10        17     9      180.000000       -0.179033         4
         2         6         9        12     9        0.000000       -0.972497         1
         2         6         9        12     9      180.000000       10.709457         2
         2         6         9        12     9        0.000000       -1.369087         3
         2         6         9        12     9      180.000000       -0.147942         4
         2         6         9        75     9        0.000000        0.251327         1
         2         6         9        75     9      180.000000       -0.090634         2
         2         6         9        75     9        0.000000       -0.248253         3
         2         6         9        75     9      180.000000        0.523493         4
         2         6         9        76     9        0.000000        0.251327         1
         2         6         9        76     9      180.000000       -0.090634         2
         2         6         9        76     9        0.000000       -0.248253         3
         2         6         9        76     9      180.000000        0.523493         4
         2         6        20        17     9        0.000000        0.262143         1
         2         6        20        17     9      180.000000       15.519112         2
         2         6        20        17     9        0.000000       -0.451186         3
         2         6        20        17     9      180.000000       -0.481568         4
         2         6        20        28     9        0.000000       -0.075673         1
         2         6        20        28     9      180.000000       19.531679         2
         2         6        20        28     9        0.000000       -1.835872         3
         2         6        20        28     9      180.000000       -0.355528         4
         2        15        12         9     9        0.000000       -6.234270         1
         2        15        12         9     9      180.000000       11.382291         2
         2        15        12         9     9        0.000000        0.713814         3
         2        15        12         9     9      180.000000        1.952210         4
         2        15        12        38     9        0.000000       18.974405         1
         2        15        12        38     9      180.000000        5.727731         2
         2        15        12        38     9        0.000000        4.153355         3
         2        15        12        38     9      180.000000        8.936786         4
         2        15        12        74     9        0.000000       -2.329753         1
         2        15        12        74     9      180.000000        6.814310         2
         2        15        12        74     9        0.000000        0.368616         3
         2        15        12        74     9      180.000000        2.005350         4
         2        15        38        12     9        0.000000        9.280558         1
         2        15        38        12     9      180.000000      -13.020414         2
         2        15        38        12     9        0.000000        3.685208         3
         2        15        38        12     9      180.000000        7.485383         4
         2        15        38        59     9        0.000000       -2.197792         1
         2        15        38        59     9      180.000000        7.821321         2
         2        15        38        59     9        0.000000        0.904637         3
         2        15        38        59     9      180.000000        2.801970         4
         2        15        38        71     9        0.000000       -2.197792         1
         2        15        38        71     9      180.000000        7.821321         2
         2        15        38        71     9        0.000000        0.904637         3
         2        15        38        71     9      180.000000        2.801970         4
         2        30        29        28     9        0.000000       -0.037321         1
         2        30        29        28     9      180.000000       19.046981         2
         2        30        29        28     9        0.000000       -1.645554         3
         2        30        29        28     9      180.000000       -0.359585         4
         2        30        29        57     9        0.000000       -0.020318         1
         2        30        29        57     9      180.000000       15.302072         2
         2        30        29        57     9        0.000000       -0.620787         3
         2        30        29        57     9      180.000000        0.049012         4
         3         5         1        11     9        0.000000       -0.471736         1
         3         5         1        11     9      180.000000       12.190066         2
         3         5         1        11     9        0.000000       -0.666983         3
         3         5         1        11     9      180.000000       -0.337150         4
         3         5         1        14     9        0.000000       -0.017035         1
         3         5         1        14     9      180.000000       11.572038         2
         3         5         1        14     9        0.000000       -0.132672         3
         3         5         1        14     9      180.000000       -0.300036         4
         3         5        19        17     9        0.000000        0.339559         1
         3         5        19        17     9      180.000000       11.247338         2
         3         5        19        17     9        0.000000        0.378103         3
         3         5        19        17     9      180.000000       -0.259672         4
         3         5        19        39     9        0.000000        0.274811         1
         3         5        19        39     9      180.000000       19.026978         2
         3         5        19        39     9        0.000000        0.281881         3
         3         5        19        39     9      180.000000       -0.627359         4
         3         8         4        21     9        0.000000       -1.149232         1
         3         8         4        21     9      180.000000        7.687629         2
         3         8         4        21     9        0.000000       -0.022196         3
         3         8         4        21     9      180.000000       -0.079531         4
         3         8         7        11     9        0.000000        0.660531         1
         3         8         7        11     9      180.000000       10.715258         2
         3         8         7        11     9        0.000000        0.263610         3
         3         8         7        11     9      180.000000       -0.480731         4
         4         8         3         5     9        0.000000        0.178334         1
         4         8         3         5     9      180.000000       26.547866         2
         4         8         3         5     9        0.000000        1.065255         3
         4         8         3         5     9      180.000000       -1.658565         4
         4         8         7        11     9        0.000000        0.307543         1
         4         8         7        11     9      180.000000       19.335911         2
         4         8         7        11     9        0.000000        0.634016         3
         4         8         7        11     9      180.000000       -0.940958         4
         4        21        31        18     9        0.000000        8.416773         1
         4        21        31        18     9      180.000000       -3.649712         2
         4        21        31        18     9        0.000000        0.527129         3
         4        21        31        18     9      180.000000        0.372538         4
         4        21        31        32     9        0.000000        0.667314         1
         4        21        31        32     9      180.000000        0.490809         2
         4        21        31        32     9        0.000000        0.703097         3
         4        21        31        32     9      180.000000       -0.003200         4
         4        21        31        37     9        0.000000        0.343824         1
         4        21        31        37     9      180.000000        0.607405         2
         4        21        31        37     9        0.000000        0.709032         3
         4        21        31        37     9      180.000000       -0.001037         4
         5         1        11         7     9        0.000000       -0.519795         1
         5         1        11         7     9      180.000000        6.713151         2
         5         1        11         7     9        0.000000       -0.024749         3
         5         1        11         7     9      180.000000       -0.300234         4
         5         1        11        13     9        0.000000        0.407941         1
         5         1        11        13     9      180.000000       11.114711         2
         5         1        11        13     9        0.000000        0.612400         3
         5         1        11        13     9      180.000000       -0.513758         4
         5         1        14        10     9        0.000000       -0.046888         1
         5         1        14        10     9      180.000000       13.603485         2
         5         1        14        10     9        0.000000       -0.606976         3
         5         1        14        10     9      180.000000       -0.351997         4
         5         1        14        42     9        0.000000       -0.022474         1
         5         1        14        42     9      180.000000       11.635065         2
         5         1        14        42     9        0.000000       -0.263422         3
         5         1        14        42     9      180.000000       -0.159162         4
         5         3         8         7     9        0.000000        0.224499         1
         5         3         8         7     9      180.000000       15.354918         2
         5         3         8         7     9        0.000000        0.794477         3
         5         3         8         7     9      180.000000       -0.765392         4
         5        19        17        10     9        0.000000       -0.149557         1
         5        19        17        10     9      180.000000       11.355325         2
         5        19        17        10     9        0.000000       -0.236727         3
         5        19        17        10     9      180.000000       -0.366081         4
         5        19        17        20     9        0.000000        0.298065         1
         5        19        17        20     9      180.000000       13.423212         2
         5        19        17        20     9        0.000000        0.038952         3
         5        19        17        20     9      180.000000       -0.600491         4
         6         2        15        12     9        0.000000       -4.408366         1
         6         2        15        12     9      180.000000       20.302778         2
         6         2        15        12     9        0.000000       -3.375730         3
         6         2        15        12     9      180.000000       -2.292355         4
         6         2        15        38     9        0.000000      -10.739936         1
         6         2        15        38     9      180.000000        3.952732         2
         6         2        15        38     9        0.000000        0.915199         3
         6         2        15        38     9      180.000000        0.022221         4
         6         2        15        58     9        0.000000        0.740809         1
         6         2        15        58     9      180.000000        1.232151         2
         6         2        15        58     9        0.000000       -0.008654         3
         6         2        15        58     9      180.000000        0.649611         4
         6         2        30        29     9        0.000000       -0.120989         1
         6         2        30        29     9      180.000000       19.561899         2
         6         2        30        29     9        0.000000       -2.090466         3
         6         2        30        29     9      180.000000       -0.324235         4
         6         2        30        41     9        0.000000        0.065007         1
         6         2        30        41     9      180.000000       14.821368         2
         6         2        30        41     9        0.000000       -0.499120         3
         6         2        30        41     9      180.000000       -0.187825         4
         6         9        12        15     9        0.000000       -0.768978         1
         6         9        12        15     9      180.000000       11.419996         2
         6         9        12        15     9        0.000000       -0.526047         3
         6         9        12        15     9      180.000000       -3.292324         4
         6         9        12        38     9        0.000000        1.417019         1
         6         9        12        38     9      180.000000       -1.758993         2
         6         9        12        38     9        0.000000        3.011265         3
         6         9        12        38     9      180.000000        0.097408         4
         6         9        12        74     9        0.000000        1.226183         1
         6         9        12        74     9      180.000000       -1.813123         2
         6         9        12        74     9        0.000000        0.558366         3
         6         9        12        74     9      180.000000        0.413872         4
         6        20        17        10     9        0.000000       -0.630280         1
         6        20        17        10     9      180.000000        4.401165         2
         6        20        17        10     9        0.000000        0.196629         3
         6        20        17        10     9      180.000000        0.228643         4
         6        20        17        19     9        0.000000       -0.091884         1
         6        20        17        19     9      180.000000        4.236182         2
         6        20        17        19     9        0.000000        0.089160         3
         6        20        17        19     9      180.000000        0.342028         4
         6        20        28        29     9        0.000000       -0.190641         1
         6        20        28        29     9      180.000000       18.895713         2
         6        20        28        29     9        0.000000       -1.475204         3
         6        20        28        29     9      180.000000       -0.355064         4
         6        20        28        56     9        0.000000       -0.000041         1
         6        20        28        56     9      180.000000       14.962160         2
         6        20        28        56     9        0.000000       -0.709046         3
         6        20        28        56     9      180.000000        0.037114         4
         7         8         4        21     9        0.000000        0.588425         1
         7         8         4        21     9      180.000000        7.176837         2
         7         8         4        21     9        0.000000        0.274452         3
         7         8         4        21     9      180.000000       -0.077429         4
         7        11         1        14     9        0.000000       -0.994915         1
         7        11         1        14     9      180.000000        4.796469         2
         7        11         1        14     9        0.000000       -0.250640         3
         7        11         1        14     9      180.000000       -0.286139         4
         7        11        13        22     9        0.000000       -1.227826         1
         7        11        13        22     9      180.000000        9.662345         2
         7        11        13        22     9        0.000000       -0.205593         3
         7        11        13        22     9      180.000000        0.178658         4
         7        11        13        25     9        0.000000       -1.227826         1
         7        11        13        25     9      180.000000        9.662345         2
         7        11        13        25     9        0.000000       -0.205593         3
         7        11        13        25     9      180.000000        0.178658         4
         8         3         5        19     9        0.000000       -0.319652         1
         8         3         5        19     9      180.000000       13.547601         2
         8         3         5        19     9        0.000000       -0.029683         3
         8         3         5        19     9      180.000000       -0.329022         4
         8         4        21        31     9        0.000000       -7.762304         1
         8         4        21        31     9      180.000000       -1.386918         2
         8         4        21        31     9        0.000000        0.120462         3
         8         4        21        31     9      180.000000       -0.005250         4
         8         4        21        44     9        0.000000        0.340827         1
         8         4        21        44     9      180.000000        0.284935         2
         8         4        21        44     9        0.000000        0.277609         3
         8         4        21        44     9      180.000000        0.096303         4
         8         4        21        45     9        0.000000        0.340827         1
         8         4        21        45     9      180.000000        0.284935         2
         8         4        21        45     9        0.000000        0.277609         3
         8         4        21        45     9      180.000000        0.096303         4
         8         7        11        13     9        0.000000        0.184154         1
         8         7        11        13     9      180.000000       24.542966         2
         8         7        11        13     9        0.000000        0.122818         3
         8         7        11        13     9      180.000000       -1.084633         4
         9         6         2        15     9        0.000000        0.179257         1
         9         6         2        15     9      180.000000       19.815785         2
         9         6         2        15     9        0.000000       -3.452754         3
         9         6         2        15     9      180.000000       -0.445791         4
         9         6         2        30     9        0.000000       -0.050424         1
         9         6         2        30     9      180.000000       13.986946         2
         9         6         2        30     9        0.000000       -1.608671         3
         9         6         2        30     9      180.000000       -0.090246         4
         9         6        20        17     9        0.000000       -0.326242         1
         9         6        20        17     9      180.000000       13.339480         2
         9         6        20        17     9        0.000000        0.021648         3
         9         6        20        17     9      180.000000       -0.409645         4
         9         6        20        28     9        0.000000       -0.010015         1
         9         6        20        28     9      180.000000       14.409981         2
         9         6        20        28     9        0.000000       -0.215147         3
         9         6        20        28     9      180.000000       -0.331103         4
         9        12        15        38     9        0.000000       33.339744         1
         9        12        15        38     9      180.000000        7.259122         2
         9        12        15        38     9        0.000000        2.932574         3
         9        12        15        38     9      180.000000        6.213623         4
         9        12        15        58     9        0.000000        0.637674         1
         9        12        15        58     9      180.000000        7.048289         2
         9        12        15        58     9        0.000000       -0.007518         3
         9        12        15        58     9      180.000000        1.480756         4
         9        12        38        15     9        0.000000        2.223617         1
         9        12        38        15     9      180.000000      -11.413585         2
         9        12        38        15     9        0.000000        4.776433         3
         9        12        38        15     9      180.000000        1.634544         4
         9        12        38        59     9        0.000000       -2.792433         1
         9        12        38        59     9      180.000000        5.203937         2
         9        12        38        59     9        0.000000        0.046680         3
         9        12        38        59     9      180.000000        1.749258         4
         9        12        38        71     9        0.000000       -2.792433         1
         9        12        38        71     9      180.000000        5.203937         2
         9        12        38        71     9        0.000000        0.046680         3
         9        12        38        71     9      180.000000        1.749258         4
        10        14         1        11     9        0.000000       -0.945883         1
        10        14         1        11     9      180.000000       10.970277         2
        10        14         1        11     9        0.000000       -0.343277         3
        10        14         1        11     9      180.000000       -0.284802         4
        10        17        19        39     9        0.000000       -0.075630         1
        10        17        19        39     9      180.000000       20.374872         2
        10        17        19        39     9        0.000000        0.301002         3
        10        17        19        39     9      180.000000       -1.147066         4
        10        17        20        28     9        0.000000        0.586528         1
        10        17        20        28     9      180.000000        4.382327         2
        10        17        20        28     9        0.000000       -0.003057         3
        10        17        20        28     9      180.000000        0.313266         4
        11         1         5        19     9        0.000000       -0.869741         1
        11         1         5        19     9      180.000000       12.103283         2
        11         1         5        19     9        0.000000       -1.680274         3
        11         1         5        19     9      180.000000       -0.257007         4
        11         1        14        42     9        0.000000       -0.135604         1
        11         1        14        42     9      180.000000        9.854397         2
        11         1        14        42     9        0.000000       -0.358278         3
        11         1        14        42     9      180.000000       -0.032610         4
        11        13        22        23     9        0.000000       -3.160918         1
        11        13        22        23     9      180.000000       -0.589006         2
        11        13        22        23     9        0.000000        0.354310         3
        11        13        22        23     9      180.000000       -0.069445         4
        11        13        22        46     9        0.000000        0.010062         1
        11        13        22        46     9      180.000000        0.194484         2
        11        13        22        46     9        0.000000        0.191535         3
        11        13        22        46     9      180.000000        0.106044         4
        11        13        22        47     9        0.000000        0.010062         1
        11        13        22        47     9      180.000000        0.194484         2
        11        13        22        47     9        0.000000        0.191535         3
        11        13        22        47     9      180.000000        0.106044         4
        11        13        25        24     9        0.000000       -3.160918         1
        11        13        25        24     9      180.000000       -0.589006         2
        11        13        25        24     9        0.000000        0.354310         3
        11        13        25        24     9      180.000000       -0.069445         4
        11        13        25        50     9        0.000000        0.010062         1
        11        13        25        50     9      180.000000        0.194484         2
        11        13        25        50     9        0.000000        0.191535         3
        11        13        25        50     9      180.000000        0.106044         4
        11        13        25        51     9        0.000000        0.010062         1
        11        13        25        51     9      180.000000        0.194484         2
        11        13        25        51     9        0.000000        0.191535         3
        11        13        25        51     9      180.000000        0.106044         4
        12         9         6        20     9        0.000000        0.128360         1
        12         9         6        20     9      180.000000        0.711461         2
        12         9         6        20     9        0.000000        0.086930         3
        12         9         6        20     9      180.000000        0.500392         4
        12        15         2        30     9        0.000000       -2.112247         1
        12        15         2        30     9      180.000000        1.574443         2
        12        15         2        30     9        0.000000        0.050400         3
        12        15         2        30     9      180.000000        0.535260         4
        12        15        38        59     9        0.000000       23.714203         1
        12        15        38        59     9      180.000000        8.363221         2
        12        15        38        59     9        0.000000        0.630389         3
        12        15        38        59     9      180.000000        5.842538         4
        12        15        38        71     9        0.000000       23.714203         1
        12        15        38        71     9      180.000000        8.363221         2
        12        15        38        71     9        0.000000        0.630389         3
        12        15        38        71     9      180.000000        5.842538         4
        12        38        15        58     9        0.000000       13.761946         1
        12        38        15        58     9      180.000000       -1.685683         2
        12        38        15        58     9        0.000000        0.197765         3
        12        38        15        58     9      180.000000        4.340284         4
        13        11         1        14     9        0.000000        0.597107         1
        13        11         1        14     9      180.000000        8.538785         2
        13        11         1        14     9        0.000000        0.492561         3
        13        11         1        14     9      180.000000       -0.484512         4
        13        22        23        16     9        0.000000       10.360260         1
        13        22        23        16     9      180.000000       -0.455638         2
        13        22        23        16     9        0.000000        1.252755         3
        13        22        23        16     9      180.000000       -0.383471         4
        13        22        23        27     9        0.000000        8.665241         1
        13        22        23        27     9      180.000000        3.003229         2
        13        22        23        27     9        0.000000        1.172798         3
        13        22        23        27     9      180.000000       -0.235254         4
        13        22        23        48     9        0.000000        0.208834         1
        13        22        23        48     9      180.000000       -1.298774         2
        13        22        23        48     9        0.000000        0.789454         3
        13        22        23        48     9      180.000000        0.143387         4
        13        25        24        16     9        0.000000       10.360260         1
        13        25        24        16     9      180.000000       -0.455638         2
        13        25        24        16     9        0.000000        1.252755         3
        13        25        24        16     9      180.000000       -0.383471         4
        13        25        24        26     9        0.000000        8.665241         1
        13        25        24        26     9      180.000000        3.003229         2
        13        25        24        26     9        0.000000        1.172798         3
        13        25        24        26     9      180.000000       -0.235254         4
        13        25        24        49     9        0.000000        0.208834         1
        13        25        24        49     9      180.000000       -1.298774         2
        13        25        24        49     9        0.000000        0.789454         3
        13        25        24        49     9      180.000000        0.143387         4
        14         1         5        19     9        0.000000       -0.323513         1
        14         1         5        19     9      180.000000       10.751287         2
        14         1         5        19     9        0.000000       -1.170765         3
        14         1         5        19     9      180.000000       -0.075662         4
        14        10        17        19     9        0.000000        0.056479         1
        14        10        17        19     9      180.000000       18.581004         2
        14        10        17        19     9        0.000000        0.107301         3
        14        10        17        19     9      180.000000       -0.224294         4
        14        10        17        20     9        0.000000        0.862497         1
        14        10        17        20     9      180.000000       21.311296         2
        14        10        17        20     9        0.000000        1.139879         3
        14        10        17        20     9      180.000000       -1.062455         4
        15         2         6        20     9        0.000000        0.015527         1
        15         2         6        20     9      180.000000       14.139869         2
        15         2         6        20     9        0.000000       -1.973032         3
        15         2         6        20     9      180.000000       -0.089787         4
        15         2        30        29     9        0.000000       -0.039961         1
        15         2        30        29     9      180.000000       14.831775         2
        15         2        30        29     9        0.000000       -0.213174         3
        15         2        30        29     9      180.000000       -0.135263         4
        15         2        30        41     9        0.000000       -0.052540         1
        15         2        30        41     9      180.000000       12.239321         2
        15         2        30        41     9        0.000000       -0.195456         3
        15         2        30        41     9      180.000000        0.041929         4
        15        12         9        75     9        0.000000        0.095439         1
        15        12         9        75     9      180.000000       -0.257534         2
        15        12         9        75     9        0.000000        0.228395         3
        15        12         9        75     9      180.000000        0.360380         4
        15        12         9        76     9        0.000000        0.095439         1
        15        12         9        76     9      180.000000       -0.257534         2
        15        12         9        76     9        0.000000        0.228395         3
        15        12         9        76     9      180.000000        0.360380         4
        15        12        38        59     9        0.000000       15.177899         1
        15        12        38        59     9      180.000000        6.095486         2
        15        12        38        59     9        0.000000       -0.078119         3
        15        12        38        59     9      180.000000        4.084717         4
        15        12        38        71     9        0.000000       15.177899         1
        15        12        38        71     9      180.000000        6.095486         2
        15        12        38        71     9        0.000000       -0.078119         3
        15        12        38        71     9      180.000000        4.084717         4
        15        38        12        74     9        0.000000        8.450618         1
        15        38        12        74     9      180.000000       -2.207297         2
        15        38        12        74     9        0.000000        0.028880         3
        15        38        12        74     9      180.000000        2.519818         4
        16        23        22        46     9        0.000000       -0.109134         1
        16        23        22        46     9      180.000000        0.138444         2
        16        23        22        46     9        0.000000        0.755957         3
        16        23        22        46     9      180.000000       -0.087097         4
        16        23        22        47     9        0.000000       -0.109134         1
        16        23        22        47     9      180.000000        0.138444         2
        16        23        22        47     9        0.000000        0.755957         3
        16        23        22        47     9      180.000000       -0.087097         4
        16        23        27        26     9        0.000000       -6.720876         1
        16        23        27        26     9      180.000000       11.285324         2
        16        23        27        26     9        0.000000        0.310730         3
        16        23        27        26     9      180.000000       -2.781275         4
        16        23        27        54     9        0.000000       -0.566248         1
        16        23        27        54     9      180.000000        0.138173         2
        16        23        27        54     9        0.000000        0.237111         3
        16        23        27        54     9      180.000000       -0.093241         4
        16        23        27        55     9        0.000000       -0.566248         1
        16        23        27        55     9      180.000000        0.138173         2
        16        23        27        55     9        0.000000        0.237111         3
        16        23        27        55     9      180.000000       -0.093241         4
        16        24        25        50     9        0.000000       -0.109134         1
        16        24        25        50     9      180.000000        0.138444         2
        16        24        25        50     9        0.000000        0.755957         3
        16        24        25        50     9      180.000000       -0.087097         4
        16        24        25        51     9        0.000000       -0.109134         1
        16        24        25        51     9      180.000000        0.138444         2
        16        24        25        51     9        0.000000        0.755957         3
        16        24        25        51     9      180.000000       -0.087097         4
        16        24        26        27     9        0.000000       -6.720876         1
        16        24        26        27     9      180.000000       11.285324         2
        16        24        26        27     9        0.000000        0.310730         3
        16        24        26        27     9      180.000000       -2.781275         4
        16        24        26        52     9        0.000000       -0.566248         1
        16        24        26        52     9      180.000000        0.138173         2
        16        24        26        52     9        0.000000        0.237111         3
        16        24        26        52     9      180.000000       -0.093241         4
        16        24        26        53     9        0.000000       -0.566248         1
        16        24        26        53     9      180.000000        0.138173         2
        16        24        26        53     9        0.000000        0.237111         3
        16        24        26        53     9      180.000000       -0.093241         4
        17        10        14        42     9        0.000000        1.044397         1
        17        10        14        42     9      180.000000       23.247400         2
        17        10        14        42     9        0.000000        0.230516         3
        17        10        14        42     9      180.000000       -0.306130         4
        17        20        28        29     9        0.000000        0.225181         1
        17        20        28        29     9      180.000000       15.643666         2
        17        20        28        29     9        0.000000       -0.080398         3
        17        20        28        29     9      180.000000       -0.131230         4
        17        20        28        56     9        0.000000       -0.144216         1
        17        20        28        56     9      180.000000       12.629079         2
        17        20        28        56     9        0.000000       -0.279617         3
        17        20        28        56     9      180.000000        0.247604         4
        18        31        21        44     9        0.000000       -0.126877         1
        18        31        21        44     9      180.000000       -0.111364         2
        18        31        21        44     9        0.000000        0.659118         3
        18        31        21        44     9      180.000000       -0.016654         4
        18        31        21        45     9        0.000000       -0.126877         1
        18        31        21        45     9      180.000000       -0.111364         2
        18        31        21        45     9        0.000000        0.659118         3
        18        31        21        45     9      180.000000       -0.016654         4
        18        31        32        33     9        0.000000       -2.363221         1
        18        31        32        33     9      180.000000        6.077317         2
        18        31        32        33     9        0.000000       -0.267833         3
        18        31        32        33     9      180.000000       -1.739358         4
        18        31        32        60     9        0.000000        0.070051         1
        18        31        32        60     9      180.000000       -0.181249         2
        18        31        32        60     9        0.000000        0.136876         3
        18        31        32        60     9      180.000000        0.065098         4
        18        31        32        61     9        0.000000        0.070051         1
        18        31        32        61     9      180.000000       -0.181249         2
        18        31        32        61     9        0.000000        0.136876         3
        18        31        32        61     9      180.000000        0.065098         4
        18        31        37        36     9        0.000000       -2.135422         1
        18        31        37        36     9      180.000000        7.450675         2
        18        31        37        36     9        0.000000       -0.176765         3
        18        31        37        36     9      180.000000       -2.423453         4
        18        31        37        69     9        0.000000        0.138812         1
        18        31        37        69     9      180.000000       -0.428132         2
        18        31        37        69     9        0.000000        0.101319         3
        18        31        37        69     9      180.000000        0.055407         4
        18        31        37        70     9        0.000000        0.138812         1
        18        31        37        70     9      180.000000       -0.428132         2
        18        31        37        70     9        0.000000        0.101319         3
        18        31        37        70     9      180.000000        0.055407         4
        18        34        33        32     9        0.000000       -0.631528         1
        18        34        33        32     9      180.000000        5.625345         2
        18        34        33        32     9        0.000000        0.006790         3
        18        34        33        32     9      180.000000       -2.006897         4
        18        34        33        40     9        0.000000        0.323313         1
        18        34        33        40     9      180.000000       -1.231326         2
        18        34        33        40     9        0.000000        0.422320         3
        18        34        33        40     9      180.000000        0.299134         4
        18        34        33        62     9        0.000000        0.082381         1
        18        34        33        62     9      180.000000        0.357112         2
        18        34        33        62     9        0.000000        0.282959         3
        18        34        33        62     9      180.000000        0.035755         4
        18        35        36        37     9        0.000000        0.433337         1
        18        35        36        37     9      180.000000        4.116742         2
        18        35        36        37     9        0.000000        0.139001         3
        18        35        36        37     9      180.000000       -2.253721         4
        18        35        36        67     9        0.000000       -0.017066         1
        18        35        36        67     9      180.000000       -0.008412         2
        18        35        36        67     9        0.000000        0.213913         3
        18        35        36        67     9      180.000000        0.083487         4
        18        35        36        68     9        0.000000       -0.017066         1
        18        35        36        68     9      180.000000       -0.008412         2
        18        35        36        68     9        0.000000        0.213913         3
        18        35        36        68     9      180.000000        0.083487         4
        19        17        20        28     9        0.000000        0.320178         1
        19        17        20        28     9      180.000000        4.140155         2
        19        17        20        28     9        0.000000       -0.015510         3
        19        17        20        28     9      180.000000        0.315655         4
        20         6         2        30     9        0.000000       -0.121787         1
        20         6         2        30     9      180.000000       13.766843         2
        20         6         2        30     9        0.000000       -1.704518         3
        20         6         2        30     9      180.000000       -0.098324         4
        20         6         9        75     9        0.000000       -0.109116         1
        20         6         9        75     9      180.000000        0.239414         2
        20         6         9        75     9        0.000000        0.164454         3
        20         6         9        75     9      180.000000        0.075510         4
        20         6         9        76     9        0.000000       -0.109116         1
        20         6         9        76     9      180.000000        0.239414         2
        20         6         9        76     9        0.000000        0.164454         3
        20         6         9        76     9      180.000000        0.075510         4
        20        17        19        39     9        0.000000       -0.085086         1
        20        17        19        39     9      180.000000       21.011824         2
        20        17        19        39     9        0.000000        0.599343         3
        20        17        19        39     9      180.000000       -1.521019         4
        20        28        29        30     9        0.000000        0.082325         1
        20        28        29        30     9      180.000000       18.922914         2
        20        28        29        30     9        0.000000       -1.538395         3
        20        28        29        30     9      180.000000       -0.442780         4
        20        28        29        57     9        0.000000        0.020922         1
        20        28        29        57     9      180.000000       14.638743         2
        20        28        29        57     9        0.000000       -0.647791         3
        20        28        29        57     9      180.000000        0.078005         4
        21        31        18        34     9        0.000000        1.865719         1
        21        31        18        34     9      180.000000        0.032015         2
        21        31        18        34     9        0.000000        0.344696         3
        21        31        18        34     9      180.000000        0.387508         4
        21        31        18        35     9        0.000000        1.616802         1
        21        31        18        35     9      180.000000        0.066208         2
        21        31        18        35     9        0.000000        0.335303         3
        21        31        18        35     9      180.000000        0.358580         4
        21        31        18        73     9        0.000000        3.647632         1
        21        31        18        73     9      180.000000       -1.877828         2
        21        31        18        73     9        0.000000        0.483851         3
        21        31        18        73     9      180.000000        0.205969         4
        21        31        32        33     9        0.000000        0.644521         1
        21        31        32        33     9      180.000000        0.345954         2
        21        31        32        33     9        0.000000        0.196175         3
        21        31        32        33     9      180.000000        0.098440         4
        21        31        32        60     9        0.000000       -0.133490         1
        21        31        32        60     9      180.000000        0.086765         2
        21        31        32        60     9        0.000000        0.392812         3
        21        31        32        60     9      180.000000        0.008492         4
        21        31        32        61     9        0.000000       -0.133490         1
        21        31        32        61     9      180.000000        0.086765         2
        21        31        32        61     9        0.000000        0.392812         3
        21        31        32        61     9      180.000000        0.008492         4
        21        31        37        36     9        0.000000        0.502348         1
        21        31        37        36     9      180.000000        0.418331         2
        21        31        37        36     9        0.000000        0.312299         3
        21        31        37        36     9      180.000000        0.096808         4
        21        31        37        69     9        0.000000       -0.077873         1
        21        31        37        69     9      180.000000        0.005134         2
        21        31        37        69     9        0.000000        0.405082         3
        21        31        37        69     9      180.000000        0.017473         4
        21        31        37        70     9        0.000000       -0.077873         1
        21        31        37        70     9      180.000000        0.005134         2
        21        31        37        70     9        0.000000        0.405082         3
        21        31        37        70     9      180.000000        0.017473         4
        22        13        25        24     9        0.000000        3.153127         1
        22        13        25        24     9      180.000000       -3.348937         2
        22        13        25        24     9        0.000000        0.519549         3
        22        13        25        24     9      180.000000        0.090461         4
        22        13        25        50     9        0.000000       -0.428027         1
        22        13        25        50     9      180.000000        0.276117         2
        22        13        25        50     9        0.000000        0.876566         3
        22        13        25        50     9      180.000000       -0.010241         4
        22        13        25        51     9        0.000000       -0.428027         1
        22        13        25        51     9      180.000000        0.276117         2
        22        13        25        51     9        0.000000        0.876566         3
        22        13        25        51     9      180.000000       -0.010241         4
        22        23        16        24     9        0.000000       -0.856050         1
        22        23        16        24     9      180.000000       -3.154670         2
        22        23        16        24     9        0.000000        0.341030         3
        22        23        16        24     9      180.000000       -0.429377         4
        22        23        16        43     9        0.000000        3.791343         1
        22        23        16        43     9      180.000000        0.915306         2
        22        23        16        43     9        0.000000        0.458893         3
        22        23        16        43     9      180.000000        0.414023         4
        22        23        16        72     9        0.000000        3.791343         1
        22        23        16        72     9      180.000000        0.915306         2
        22        23        16        72     9        0.000000        0.458893         3
        22        23        16        72     9      180.000000        0.414023         4
        22        23        27        26     9        0.000000        0.958471         1
        22        23        27        26     9      180.000000        1.828225         2
        22        23        27        26     9        0.000000        0.287884         3
        22        23        27        26     9      180.000000       -0.116139         4
        22        23        27        54     9        0.000000       -0.152771         1
        22        23        27        54     9      180.000000       -0.126016         2
        22        23        27        54     9        0.000000        0.292799         3
        22        23        27        54     9      180.000000        0.022367         4
        22        23        27        55     9        0.000000       -0.152771         1
        22        23        27        55     9      180.000000       -0.126016         2
        22        23        27        55     9        0.000000        0.292799         3
        22        23        27        55     9      180.000000        0.022367         4
        23        16        24        25     9        0.000000       -0.856050         1
        23        16        24        25     9      180.000000       -3.154670         2
        23        16        24        25     9        0.000000        0.341030         3
        23        16        24        25     9      180.000000       -0.429377         4
        23        16        24        26     9        0.000000       -8.011946         1
        23        16        24        26     9      180.000000        8.433476         2
        23        16        24        26     9        0.000000        0.257643         3
        23        16        24        26     9      180.000000       -4.599935         4
        23        16        24        49     9        0.000000       -1.122176         1
        23        16        24        49     9      180.000000       -5.819555         2
        23        16        24        49     9        0.000000        0.140568         3
        23        16        24        49     9      180.000000        0.114692         4
        23        22        13        25     9        0.000000        3.153127         1
        23        22        13        25     9      180.000000       -3.348937         2
        23        22        13        25     9        0.000000        0.519549         3
        23        22        13        25     9      180.000000        0.090461         4
        23        27        26        24     9        0.000000       -0.441188         1
        23        27        26        24     9      180.000000        1.461405         2
        23        27        26        24     9        0.000000        0.090585         3
        23        27        26        24     9      180.000000       -1.237684         4
        23        27        26        52     9        0.000000       -0.040956         1
        23        27        26        52     9      180.000000       -0.134546         2
        23        27        26        52     9        0.000000        0.175830         3
        23        27        26        52     9      180.000000        0.068006         4
        23        27        26        53     9        0.000000       -0.040956         1
        23        27        26        53     9      180.000000       -0.134546         2
        23        27        26        53     9        0.000000        0.175830         3
        23        27        26        53     9      180.000000        0.068006         4
        24        16        23        27     9        0.000000       -8.011946         1
        24        16        23        27     9      180.000000        8.433476         2
        24        16        23        27     9        0.000000        0.257643         3
        24        16        23        27     9      180.000000       -4.599935         4
        24        16        23        48     9        0.000000       -1.122176         1
        24        16        23        48     9      180.000000       -5.819555         2
        24        16        23        48     9        0.000000        0.140568         3
        24        16        23        48     9      180.000000        0.114692         4
        24        26        27        54     9        0.000000       -0.040956         1
        24        26        27        54     9      180.000000       -0.134546         2
        24        26        27        54     9        0.000000        0.175830         3
        24        26        27        54     9      180.000000        0.068006         4
        24        26        27        55     9        0.000000       -0.040956         1
        24        26        27        55     9      180.000000       -0.134546         2
        24        26        27        55     9        0.000000        0.175830         3
        24        26        27        55     9      180.000000        0.068006         4
        25        13        22        46     9        0.000000       -0.428027         1
        25        13        22        46     9      180.000000        0.276117         2
        25        13        22        46     9        0.000000        0.876566         3
        25        13        22        46     9      180.000000       -0.010241         4
        25        13        22        47     9        0.000000       -0.428027         1
        25        13        22        47     9      180.000000        0.276117         2
        25        13        22        47     9        0.000000        0.876566         3
        25        13        22        47     9      180.000000       -0.010241         4
        25        24        16        43     9        0.000000        3.791343         1
        25        24        16        43     9      180.000000        0.915306         2
        25        24        16        43     9        0.000000        0.458893         3
        25        24        16        43     9      180.000000        0.414023         4
        25        24        16        72     9        0.000000        3.791343         1
        25        24        16        72     9      180.000000        0.915306         2
        25        24        16        72     9        0.000000        0.458893         3
        25        24        16        72     9      180.000000        0.414023         4
        25        24        26        27     9        0.000000        0.958471         1
        25        24        26        27     9      180.000000        1.828225         2
        25        24        26        27     9        0.000000        0.287884         3
        25        24        26        27     9      180.000000       -0.116139         4
        25        24        26        52     9        0.000000       -0.152771         1
        25        24        26        52     9      180.000000       -0.126016         2
        25        24        26        52     9        0.000000        0.292799         3
        25        24        26        52     9      180.000000        0.022367         4
        25        24        26        53     9        0.000000       -0.152771         1
        25        24        26        53     9      180.000000       -0.126016         2
        25        24        26        53     9        0.000000        0.292799         3
        25        24        26        53     9      180.000000        0.022367         4
        26        24        16        43     9        0.000000       -3.138482         1
        26        24        16        43     9      180.000000        2.167024         2
        26        24        16        43     9        0.000000        0.241529         3
        26        24        16        43     9      180.000000       -0.244107         4
        26        24        16        72     9        0.000000       -3.138482         1
        26        24        16        72     9      180.000000        2.167024         2
        26        24        16        72     9        0.000000        0.241529         3
        26        24        16        72     9      180.000000       -0.244107         4
        26        24        25        50     9        0.000000       -0.249238         1
        26        24        25        50     9      180.000000        0.008704         2
        26        24        25        50     9        0.000000        0.634047         3
        26        24        25        50     9      180.000000        0.041270         4
        26        24        25        51     9        0.000000       -0.249238         1
        26        24        25        51     9      180.000000        0.008704         2
        26        24        25        51     9        0.000000        0.634047         3
        26        24        25        51     9      180.000000        0.041270         4
        26        27        23        48     9        0.000000        0.718089         1
        26        27        23        48     9      180.000000        0.470471         2
        26        27        23        48     9        0.000000        0.272978         3
        26        27        23        48     9      180.000000        0.606890         4
        27        23        16        43     9        0.000000       -3.138482         1
        27        23        16        43     9      180.000000        2.167024         2
        27        23        16        43     9        0.000000        0.241529         3
        27        23        16        43     9      180.000000       -0.244107         4
        27        23        16        72     9        0.000000       -3.138482         1
        27        23        16        72     9      180.000000        2.167024         2
        27        23        16        72     9        0.000000        0.241529         3
        27        23        16        72     9      180.000000       -0.244107         4
        27        23        22        46     9        0.000000       -0.249238         1
        27        23        22        46     9      180.000000        0.008704         2
        27        23        22        46     9        0.000000        0.634047         3
        27        23        22        46     9      180.000000        0.041270         4
        27        23        22        47     9        0.000000       -0.249238         1
        27        23        22        47     9      180.000000        0.008704         2
        27        23        22        47     9        0.000000        0.634047         3
        27        23        22        47     9      180.000000        0.041270         4
        27        26        24        49     9        0.000000        0.718089         1
        27        26        24        49     9      180.000000        0.470471         2
        27        26        24        49     9        0.000000        0.272978         3
        27        26        24        49     9      180.000000        0.606890         4
        28        29        30        41     9        0.000000        0.071814         1
        28        29        30        41     9      180.000000       14.299884         2
        28        29        30        41     9        0.000000       -0.587217         3
        28        29        30        41     9      180.000000        0.176689         4
        30         2        15        38     9        0.000000       -0.398869         1
        30         2        15        38     9      180.000000        1.632282         2
        30         2        15        38     9        0.000000        0.417011         3
        30         2        15        38     9      180.000000        0.097642         4
        30         2        15        58     9        0.000000        0.479630         1
        30         2        15        58     9      180.000000        1.518470         2
        30         2        15        58     9        0.000000        0.139463         3
        30         2        15        58     9      180.000000        0.252470         4
        30        29        28        56     9        0.000000        0.074127         1
        30        29        28        56     9      180.000000       14.923315         2
        30        29        28        56     9        0.000000       -0.695360         3
        30        29        28        56     9      180.000000        0.144554         4
        31        18        34        33     9        0.000000       -2.883362         1
        31        18        34        33     9      180.000000        6.087246         2
        31        18        34        33     9        0.000000       -0.255996         3
        31        18        34        33     9      180.000000       -2.068570         4
        31        18        34        63     9        0.000000        0.287128         1
        31        18        34        63     9      180.000000       -0.182502         2
        31        18        34        63     9        0.000000        0.151558         3
        31        18        34        63     9      180.000000        0.024517         4
        31        18        34        64     9        0.000000        0.287128         1
        31        18        34        64     9      180.000000       -0.182502         2
        31        18        34        64     9        0.000000        0.151558         3
        31        18        34        64     9      180.000000        0.024517         4
        31        18        35        36     9        0.000000       -3.015892         1
        31        18        35        36     9      180.000000        9.438504         2
        31        18        35        36     9        0.000000       -0.329965         3
        31        18        35        36     9      180.000000       -3.407289         4
        31        18        35        65     9        0.000000        0.166202         1
        31        18        35        65     9      180.000000       -0.236976         2
        31        18        35        65     9        0.000000        0.090915         3
        31        18        35        65     9      180.000000        0.067433         4
        31        18        35        66     9        0.000000        0.166202         1
        31        18        35        66     9      180.000000       -0.236976         2
        31        18        35        66     9        0.000000        0.090915         3
        31        18        35        66     9      180.000000        0.067433         4
        31        32        33        34     9        0.000000       -0.852454         1
        31        32        33        34     9      180.000000        6.058260         2
        31        32        33        34     9        0.000000       -0.283329         3
        31        32        33        34     9      180.000000       -2.165702         4
        31        32        33        40     9        0.000000       -0.179590         1
        31        32        33        40     9      180.000000       -0.312456         2
        31        32        33        40     9        0.000000        0.189573         3
        31        32        33        40     9      180.000000        0.242496         4
        31        32        33        62     9        0.000000       -0.026257         1
        31        32        33        62     9      180.000000        0.227415         2
        31        32        33        62     9        0.000000        0.084301         3
        31        32        33        62     9      180.000000        0.071494         4
        31        37        36        35     9        0.000000       -0.046022         1
        31        37        36        35     9      180.000000        5.238731         2
        31        37        36        35     9        0.000000       -0.280253         3
        31        37        36        35     9      180.000000       -2.123300         4
        31        37        36        67     9        0.000000       -0.027892         1
        31        37        36        67     9      180.000000        0.002136         2
        31        37        36        67     9        0.000000        0.068934         3
        31        37        36        67     9      180.000000        0.114697         4
        31        37        36        68     9        0.000000       -0.027892         1
        31        37        36        68     9      180.000000        0.002136         2
        31        37        36        68     9        0.000000        0.068934         3
        31        37        36        68     9      180.000000        0.114697         4
        32        31        18        34     9        0.000000       -1.590111         1
        32        31        18        34     9      180.000000        0.915577         2
        32        31        18        34     9        0.000000        0.187456         3
        32        31        18        34     9      180.000000       -0.505828         4
        32        31        18        35     9        0.000000       -2.306548         1
        32        31        18        35     9      180.000000        1.130897         2
        32        31        18        35     9        0.000000        0.210554         3
        32        31        18        35     9      180.000000       -0.549659         4
        32        31        18        73     9        0.000000        2.590162         1
        32        31        18        73     9      180.000000       -0.655649         2
        32        31        18        73     9        0.000000        0.339396         3
        32        31        18        73     9      180.000000        0.345913         4
        32        31        21        44     9        0.000000       -0.021629         1
        32        31        21        44     9      180.000000        0.105941         2
        32        31        21        44     9        0.000000        0.668731         3
        32        31        21        44     9      180.000000        0.057337         4
        32        31        21        45     9        0.000000       -0.021629         1
        32        31        21        45     9      180.000000        0.105941         2
        32        31        21        45     9        0.000000        0.668731         3
        32        31        21        45     9      180.000000        0.057337         4
        32        31        37        36     9        0.000000       -0.162121         1
        32        31        37        36     9      180.000000        0.660365         2
        32        31        37        36     9        0.000000        0.241069         3
        32        31        37        36     9      180.000000        0.009327         4
        32        31        37        69     9        0.000000        0.008330         1
        32        31        37        69     9      180.000000       -0.025925         2
        32        31        37        69     9        0.000000        0.412242         3
        32        31        37        69     9      180.000000       -0.017662         4
        32        31        37        70     9        0.000000        0.008330         1
        32        31        37        70     9      180.000000       -0.025925         2
        32        31        37        70     9        0.000000        0.412242         3
        32        31        37        70     9      180.000000       -0.017662         4
        32        33        34        63     9        0.000000        0.145417         1
        32        33        34        63     9      180.000000       -0.085257         2
        32        33        34        63     9        0.000000        0.229217         3
        32        33        34        63     9      180.000000        0.014156         4
        32        33        34        64     9        0.000000        0.145417         1
        32        33        34        64     9      180.000000       -0.085257         2
        32        33        34        64     9        0.000000        0.229217         3
        32        33        34        64     9      180.000000        0.014156         4
        33        32        31        37     9        0.000000        0.042784         1
        33        32        31        37     9      180.000000        0.523189         2
        33        32        31        37     9        0.000000        0.081267         3
        33        32        31        37     9      180.000000        0.008613         4
        33        34        18        35     9        0.000000       -0.140233         1
        33        34        18        35     9      180.000000       -0.535141         2
        33        34        18        35     9        0.000000        0.299668         3
        33        34        18        35     9      180.000000        0.130622         4
        33        34        18        73     9        0.000000        3.397772         1
        33        34        18        73     9      180.000000       -1.585522         2
        33        34        18        73     9        0.000000        0.349062         3
        33        34        18        73     9      180.000000        0.158311         4
        34        18        31        37     9        0.000000       -2.915374         1
        34        18        31        37     9      180.000000        1.261287         2
        34        18        31        37     9        0.000000        0.098667         3
        34        18        31        37     9      180.000000       -0.613119         4
        34        18        35        36     9        0.000000       -1.516699         1
        34        18        35        36     9      180.000000        0.051939         2
        34        18        35        36     9        0.000000        0.280263         3
        34        18        35        36     9      180.000000        0.009269         4
        34        18        35        65     9        0.000000       -0.041654         1
        34        18        35        65     9      180.000000        0.040281         2
        34        18        35        65     9        0.000000        0.493116         3
        34        18        35        65     9      180.000000       -0.048157         4
        34        18        35        66     9        0.000000       -0.041654         1
        34        18        35        66     9      180.000000        0.040281         2
        34        18        35        66     9        0.000000        0.493116         3
        34        18        35        66     9      180.000000       -0.048157         4
        34        33        32        60     9        0.000000       -0.093334         1
        34        33        32        60     9      180.000000       -0.104786         2
        34        33        32        60     9        0.000000        0.097077         3
        34        33        32        60     9      180.000000        0.058664         4
        34        33        32        61     9        0.000000       -0.093334         1
        34        33        32        61     9      180.000000       -0.104786         2
        34        33        32        61     9        0.000000        0.097077         3
        34        33        32        61     9      180.000000        0.058664         4
        35        18        31        37     9        0.000000       -3.500622         1
        35        18        31        37     9      180.000000        1.492326         2
        35        18        31        37     9        0.000000        0.105560         3
        35        18        31        37     9      180.000000       -0.744165         4
        35        18        34        63     9        0.000000        0.072489         1
        35        18        34        63     9      180.000000        0.218806         2
        35        18        34        63     9        0.000000        0.525499         3
        35        18        34        63     9      180.000000       -0.074547         4
        35        18        34        64     9        0.000000        0.072489         1
        35        18        34        64     9      180.000000        0.218806         2
        35        18        34        64     9        0.000000        0.525499         3
        35        18        34        64     9      180.000000       -0.074547         4
        35        36        37        69     9        0.000000       -0.004154         1
        35        36        37        69     9      180.000000       -0.097592         2
        35        36        37        69     9        0.000000        0.138519         3
        35        36        37        69     9      180.000000        0.075381         4
        35        36        37        70     9        0.000000       -0.004154         1
        35        36        37        70     9      180.000000       -0.097592         2
        35        36        37        70     9        0.000000        0.138519         3
        35        36        37        70     9      180.000000        0.075381         4
        36        35        18        73     9        0.000000        4.392013         1
        36        35        18        73     9      180.000000       -1.802532         2
        36        35        18        73     9        0.000000        0.309830         3
        36        35        18        73     9      180.000000        0.426312         4
        37        31        18        73     9        0.000000        3.262311         1
        37        31        18        73     9      180.000000       -0.894109         2
        37        31        18        73     9        0.000000        0.310247         3
        37        31        18        73     9      180.000000        0.383647         4
        37        31        21        44     9        0.000000        0.102846         1
        37        31        21        44     9      180.000000        0.248024         2
        37        31        21        44     9        0.000000        0.682037         3
        37        31        21        44     9      180.000000        0.057407         4
        37        31        21        45     9        0.000000        0.102846         1
        37        31        21        45     9      180.000000        0.248024         2
        37        31        21        45     9        0.000000        0.682037         3
        37        31        21        45     9      180.000000        0.057407         4
        37        31        32        60     9        0.000000       -0.010299         1
        37        31        32        60     9      180.000000       -0.022813         2
        37        31        32        60     9        0.000000        0.384516         3
        37        31        32        60     9      180.000000       -0.003180         4
        37        31        32        61     9        0.000000       -0.010299         1
        37        31        32        61     9      180.000000       -0.022813         2
        37        31        32        61     9        0.000000        0.384516         3
        37        31        32        61     9      180.000000       -0.003180         4
        37        36        35        65     9        0.000000        0.002560         1
        37        36        35        65     9      180.000000       -0.135409         2
        37        36        35        65     9        0.000000        0.229511         3
        37        36        35        65     9      180.000000        0.059893         4
        37        36        35        66     9        0.000000        0.002560         1
        37        36        35        66     9      180.000000       -0.135409         2
        37        36        35        66     9        0.000000        0.229511         3
        37        36        35        66     9      180.000000        0.059893         4
        38        12         9        75     9        0.000000        0.158538         1
        38        12         9        75     9      180.000000       -0.256096         2
        38        12         9        75     9        0.000000        1.838621         3
        38        12         9        75     9      180.000000        0.047496         4
        38        12         9        76     9        0.000000        0.158538         1
        38        12         9        76     9      180.000000       -0.256096         2
        38        12         9        76     9        0.000000        1.838621         3
        38        12         9        76     9      180.000000        0.047496         4
        38        12        15        58     9        0.000000       24.468553         1
        38        12        15        58     9      180.000000        4.518395         2
        38        12        15        58     9        0.000000        0.068665         3
        38        12        15        58     9      180.000000        4.106563         4
        38        15        12        74     9        0.000000       22.621552         1
        38        15        12        74     9      180.000000        4.295519         2
        38        15        12        74     9        0.000000        0.066606         3
        38        15        12        74     9      180.000000        3.433052         4
        40        33        32        60     9        0.000000        0.144634         1
        40        33        32        60     9      180.000000       -0.099711         2
        40        33        32        60     9        0.000000        0.440334         3
        40        33        32        60     9      180.000000       -0.090917         4
        40        33        32        61     9        0.000000        0.144634         1
        40        33        32        61     9      180.000000       -0.099711         2
        40        33        32        61     9        0.000000        0.440334         3
        40        33        32        61     9      180.000000       -0.090917         4
        40        33        34        63     9        0.000000        0.414437         1
        40        33        34        63     9      180.000000       -0.135688         2
        40        33        34        63     9        0.000000        0.553353         3
        40        33        34        63     9      180.000000       -0.110657         4
        40        33        34        64     9        0.000000        0.414437         1
        40        33        34        64     9      180.000000       -0.135688         2
        40        33        34        64     9        0.000000        0.553353         3
        40        33        34        64     9      180.000000       -0.110657         4
        41        30        29        57     9        0.000000       -0.136168         1
        41        30        29        57     9      180.000000       11.859492         2
        41        30        29        57     9        0.000000       -0.581273         3
        41        30        29        57     9      180.000000        0.237438         4
        43        16        23        48     9        0.000000       -0.497211         1
        43        16        23        48     9      180.000000        2.354124         2
        43        16        23        48     9        0.000000        0.397744         3
        43        16        23        48     9      180.000000        0.067520         4
        43        16        24        49     9        0.000000       -0.497211         1
        43        16        24        49     9      180.000000        2.354124         2
        43        16        24        49     9        0.000000        0.397744         3
        43        16        24        49     9      180.000000        0.067520         4
        46        22        23        48     9        0.000000        0.154148         1
        46        22        23        48     9      180.000000        0.583964         2
        46        22        23        48     9        0.000000        0.589180         3
        46        22        23        48     9      180.000000       -0.059466         4
        47        22        23        48     9        0.000000        0.154148         1
        47        22        23        48     9      180.000000        0.583964         2
        47        22        23        48     9        0.000000        0.589180         3
        47        22        23        48     9      180.000000       -0.059466         4
        48        23        16        72     9        0.000000       -0.497211         1
        48        23        16        72     9      180.000000        2.354124         2
        48        23        16        72     9        0.000000        0.397744         3
        48        23        16        72     9      180.000000        0.067520         4
        48        23        27        54     9        0.000000       -0.104800         1
        48        23        27        54     9      180.000000        0.054432         2
        48        23        27        54     9        0.000000        0.500456         3
        48        23        27        54     9      180.000000       -0.079027         4
        48        23        27        55     9        0.000000       -0.104800         1
        48        23        27        55     9      180.000000        0.054432         2
        48        23        27        55     9        0.000000        0.500456         3
        48        23        27        55     9      180.000000       -0.079027         4
        49        24        16        72     9        0.000000       -0.497211         1
        49        24        16        72     9      180.000000        2.354124         2
        49        24        16        72     9        0.000000        0.397744         3
        49        24        16        72     9      180.000000        0.067520         4
        49        24        25        50     9        0.000000        0.154148         1
        49        24        25        50     9      180.000000        0.583964         2
        49        24        25        50     9        0.000000        0.589180         3
        49        24        25        50     9      180.000000       -0.059466         4
        49        24        25        51     9        0.000000        0.154148         1
        49        24        25        51     9      180.000000        0.583964         2
        49        24        25        51     9        0.000000        0.589180         3
        49        24        25        51     9      180.000000       -0.059466         4
        49        24        26        52     9        0.000000       -0.104800         1
        49        24        26        52     9      180.000000        0.054432         2
        49        24        26        52     9        0.000000        0.500456         3
        49        24        26        52     9      180.000000       -0.079027         4
        49        24        26        53     9        0.000000       -0.104800         1
        49        24        26        53     9      180.000000        0.054432         2
        49        24        26        53     9        0.000000        0.500456         3
        49        24        26        53     9      180.000000       -0.079027         4
        52        26        27        54     9        0.000000        0.035024         1
        52        26        27        54     9      180.000000        0.050947         2
        52        26        27        54     9        0.000000        0.415366         3
        52        26        27        54     9      180.000000       -0.045840         4
        52        26        27        55     9        0.000000        0.035024         1
        52        26        27        55     9      180.000000        0.050947         2
        52        26        27        55     9        0.000000        0.415366         3
        52        26        27        55     9      180.000000       -0.045840         4
        53        26        27        54     9        0.000000        0.035024         1
        53        26        27        54     9      180.000000        0.050947         2
        53        26        27        54     9        0.000000        0.415366         3
        53        26        27        54     9      180.000000       -0.045840         4
        53        26        27        55     9        0.000000        0.035024         1
        53        26        27        55     9      180.000000        0.050947         2
        53        26        27        55     9        0.000000        0.415366         3
        53        26        27        55     9      180.000000       -0.045840         4
        56        28        29        57     9        0.000000       -0.206408         1
        56        28        29        57     9      180.000000       12.032134         2
        56        28        29        57     9        0.000000       -0.752560         3
        56        28        29        57     9      180.000000        0.342705         4
        58        15        12        74     9        0.000000        5.541640         1
        58        15        12        74     9      180.000000        3.857083         2
        58        15        12        74     9        0.000000       -0.012186         3
        58        15        12        74     9      180.000000        1.920372         4
        58        15        38        59     9        0.000000       -1.073058         1
        58        15        38        59     9      180.000000        1.887279         2
        58        15        38        59     9        0.000000       -0.248613         3
        58        15        38        59     9      180.000000        1.247275         4
        58        15        38        71     9        0.000000       -1.073058         1
        58        15        38        71     9      180.000000        1.887279         2
        58        15        38        71     9        0.000000       -0.248613         3
        58        15        38        71     9      180.000000        1.247275         4
        59        38        12        74     9        0.000000       -2.939500         1
        59        38        12        74     9      180.000000        1.522095         2
        59        38        12        74     9        0.000000       -0.325268         3
        59        38        12        74     9      180.000000        1.361373         4
        60        32        33        62     9        0.000000       -0.000191         1
        60        32        33        62     9      180.000000       -0.002396         2
        60        32        33        62     9        0.000000        0.354545         3
        60        32        33        62     9      180.000000       -0.016657         4
        61        32        33        62     9        0.000000       -0.000191         1
        61        32        33        62     9      180.000000       -0.002396         2
        61        32        33        62     9        0.000000        0.354545         3
        61        32        33        62     9      180.000000       -0.016657         4
        62        33        34        63     9        0.000000       -0.063774         1
        62        33        34        63     9      180.000000        0.017565         2
        62        33        34        63     9        0.000000        0.467032         3
        62        33        34        63     9      180.000000        0.021870         4
        62        33        34        64     9        0.000000       -0.063774         1
        62        33        34        64     9      180.000000        0.017565         2
        62        33        34        64     9        0.000000        0.467032         3
        62        33        34        64     9      180.000000        0.021870         4
        63        34        18        73     9        0.000000       -0.097230         1
        63        34        18        73     9      180.000000        0.756843         2
        63        34        18        73     9        0.000000        0.431534         3
        63        34        18        73     9      180.000000        0.049627         4
        64        34        18        73     9        0.000000       -0.097230         1
        64        34        18        73     9      180.000000        0.756843         2
        64        34        18        73     9        0.000000        0.431534         3
        64        34        18        73     9      180.000000        0.049627         4
        65        35        18        73     9        0.000000       -0.086934         1
        65        35        18        73     9      180.000000        0.605395         2
        65        35        18        73     9        0.000000        0.486313         3
        65        35        18        73     9      180.000000        0.034892         4
        65        35        36        67     9        0.000000       -0.030208         1
        65        35        36        67     9      180.000000        0.017105         2
        65        35        36        67     9        0.000000        0.390642         3
        65        35        36        67     9      180.000000       -0.018653         4
        65        35        36        68     9        0.000000       -0.030208         1
        65        35        36        68     9      180.000000        0.017105         2
        65        35        36        68     9        0.000000        0.390642         3
        65        35        36        68     9      180.000000       -0.018653         4
        66        35        18        73     9        0.000000       -0.086934         1
        66        35        18        73     9      180.000000        0.605395         2
        66        35        18        73     9        0.000000        0.486313         3
        66        35        18        73     9      180.000000        0.034892         4
        66        35        36        67     9        0.000000       -0.030208         1
        66        35        36        67     9      180.000000        0.017105         2
        66        35        36        67     9        0.000000        0.390642         3
        66        35        36        67     9      180.000000       -0.018653         4
        66        35        36        68     9        0.000000       -0.030208         1
        66        35        36        68     9      180.000000        0.017105         2
        66        35        36        68     9        0.000000        0.390642         3
        66        35        36        68     9      180.000000       -0.018653         4
        67        36        37        69     9        0.000000       -0.026258         1
        67        36        37        69     9      180.000000        0.046064         2
        67        36        37        69     9        0.000000        0.307649         3
        67        36        37        69     9      180.000000        0.012990         4
        67        36        37        70     9        0.000000       -0.026258         1
        67        36        37        70     9      180.000000        0.046064         2
        67        36        37        70     9        0.000000        0.307649         3
        67        36        37        70     9      180.000000        0.012990         4
        68        36        37        69     9        0.000000       -0.026258         1
        68        36        37        69     9      180.000000        0.046064         2
        68        36        37        69     9        0.000000        0.307649         3
        68        36        37        69     9      180.000000        0.012990         4
        68        36        37        70     9        0.000000       -0.026258         1
        68        36        37        70     9      180.000000        0.046064         2
        68        36        37        70     9        0.000000        0.307649         3
        68        36        37        70     9      180.000000        0.012990         4
        71        38        12        74     9        0.000000       -2.939500         1
        71        38        12        74     9      180.000000        1.522095         2
        71        38        12        74     9        0.000000       -0.325268         3
        71        38        12        74     9      180.000000        1.361373         4
        74        12         9        75     9        0.000000        0.094423         1
        74        12         9        75     9      180.000000        0.389771         2
        74        12         9        75     9        0.000000        0.557010         3
        74        12         9        75     9      180.000000       -0.012899         4
        74        12         9        76     9        0.000000        0.094423         1
        74        12         9        76     9      180.000000        0.389771         2
        74        12         9        76     9        0.000000        0.557010         3
        74        12         9        76     9      180.000000       -0.012899         4

[ dihedrals ] ; impropers
;       ai        aj        ak        al funct           phase               k        pn
         8         3         4         7     4      180.000000       26.953278         2
         8         4         7         3     4      180.000000       26.953278         2
         8         7         3         4     4      180.000000       26.953278         2
        11         1         7        13     4      180.000000        8.565568         2
        11         7        13         1     4      180.000000        8.565568         2
        11        13         1         7     4      180.000000        8.565568         2
        14         1        10        42     4      180.000000        1.802926         2
        14        10        42         1     4      180.000000        1.802926         2
        14        42         1        10     4      180.000000        1.802926         2
        17        10        19        20     4      180.000000        0.170629         2
        17        19        20        10     4      180.000000        0.170629         2
        17        20        10        19     4      180.000000        0.170629         2

[ pairs ]
;       ai        aj funct
         1         8     1
         1        17     1
         1        22     1
         1        25     1
         1        39     1
         2        17     1
         2        28     1
         2        57     1
         2        59     1
         2        71     1
         2        74     1
         2        75     1
         2        76     1
         3        11     1
         3        14     1
         3        17     1
         3        21     1
         3        39     1
         4         5     1
         4        11     1
         4        18     1
         4        32     1
         4        37     1
         5         7     1
         5        10     1
         5        13     1
         5        20     1
         5        42     1
         6        10     1
         6        19     1
         6        29     1
         6        38     1
         6        41     1
         6        56     1
         6        58     1
         6        74     1
         7        14     1
         7        21     1
         7        22     1
         7        25     1
         8        13     1
         8        19     1
         8        31     1
         8        44     1
         8        45     1
         9        17     1
         9        28     1
         9        30     1
         9        58     1
         9        59     1
         9        71     1
        10        11     1
        10        28     1
        10        39     1
        11        19     1
        11        23     1
        11        24     1
        11        42     1
        11        46     1
        11        47     1
        11        50     1
        11        51     1
        12        20     1
        12        30     1
        13        14     1
        13        16     1
        13        26     1
        13        27     1
        13        48     1
        13        49     1
        14        19     1
        14        20     1
        15        20     1
        15        29     1
        15        41     1
        15        75     1
        15        76     1
        16        46     1
        16        47     1
        16        50     1
        16        51     1
        16        52     1
        16        53     1
        16        54     1
        16        55     1
        17        29     1
        17        42     1
        17        56     1
        18        40     1
        18        44     1
        18        45     1
        18        60     1
        18        61     1
        18        62     1
        18        67     1
        18        68     1
        18        69     1
        18        70     1
        19        28     1
        20        30     1
        20        39     1
        20        57     1
        20        75     1
        20        76     1
        21        33     1
        21        34     1
        21        35     1
        21        36     1
        21        60     1
        21        61     1
        21        69     1
        21        70     1
        21        73     1
        22        24     1
        22        26     1
        22        43     1
        22        50     1
        22        51     1
        22        54     1
        22        55     1
        22        72     1
        23        25     1
        23        49     1
        23        52     1
        23        53     1
        24        48     1
        24        54     1
        24        55     1
        25        27     1
        25        43     1
        25        46     1
        25        47     1
        25        52     1
        25        53     1
        25        72     1
        26        43     1
        26        48     1
        26        50     1
        26        51     1
        26        72     1
        27        43     1
        27        46     1
        27        47     1
        27        49     1
        27        72     1
        28        41     1
        30        38     1
        30        56     1
        30        58     1
        31        40     1
        31        62     1
        31        63     1
        31        64     1
        31        65     1
        31        66     1
        31        67     1
        31        68     1
        32        35     1
        32        36     1
        32        44     1
        32        45     1
        32        63     1
        32        64     1
        32        69     1
        32        70     1
        32        73     1
        33        35     1
        33        37     1
        33        73     1
        34        36     1
        34        37     1
        34        60     1
        34        61     1
        34        65     1
        34        66     1
        35        63     1
        35        64     1
        35        69     1
        35        70     1
        36        73     1
        37        44     1
        37        45     1
        37        60     1
        37        61     1
        37        65     1
        37        66     1
        37        73     1
        38        75     1
        38        76     1
        40        60     1
        40        61     1
        40        63     1
        40        64     1
        41        57     1
        43        48     1
        43        49     1
        46        48     1
        47        48     1
        48        54     1
        48        55     1
        48        72     1
        49        50     1
        49        51     1
        49        52     1
        49        53     1
        49        72     1
        52        54     1
        52        55     1
        53        54     1
        53        55     1
        56        57     1
        58        59     1
        58        71     1
        58        74     1
        59        74     1
        60        62     1
        61        62     1
        62        63     1
        62        64     1
        63        73     1
        64        73     1
        65        67     1
        65        68     1
        65        73     1
        66        67     1
        66        68     1
        66        73     1
        67        69     1
        67        70     1
        68        69     1
        68        70     1
        71        74     1
        74        75     1
        74        76     1
