; ITP file created by ByteFF-ML, 2026-01-07 07:32:39.089216

[ atomtypes ]
;name           bonded.type        at.num        mass        charge   ptype           sigma         epsilon
 c0bf                                   6      0.0000       0.00000       A     3.31643e-01     4.14234e-01
 n1bf                                   7      0.0000       0.00000       A     3.38612e-01     3.95291e-01
 o2bf                                   8      0.0000       0.00000       A     3.15901e-01     3.10732e-01
 c3bf                                   6      0.0000       0.00000       A     3.31246e-01     4.16317e-01
 n4bf                                   7      0.0000       0.00000       A     3.38224e-01     3.92446e-01
 c5bf                                   6      0.0000       0.00000       A     3.31664e-01     4.13669e-01
 n6bf                                   7      0.0000       0.00000       A     3.38654e-01     3.91454e-01
 c7bf                                   6      0.0000       0.00000       A     3.31345e-01     4.09248e-01
 n8bf                                   7      0.0000       0.00000       A     3.18923e-01     8.93580e-01
 c9bf                                   6      0.0000       0.00000       A     3.31425e-01     4.12209e-01
 n10bf                                  7      0.0000       0.00000       A     2.68098e-01     7.07337e+00
 c11bf                                  6      0.0000       0.00000       A     3.31371e-01     4.11861e-01
 n12bf                                  7      0.0000       0.00000       A     2.54328e-01     1.61825e+01
 c13bf                                  6      0.0000       0.00000       A     3.31479e-01     4.13996e-01
 c14bf                                  6      0.0000       0.00000       A     3.30922e-01     4.10214e-01
 c15bf                                  6      0.0000       0.00000       A     3.39865e-01     4.54454e-01
 c16bf                                  6      0.0000       0.00000       A     3.39089e-01     4.49819e-01
 c17bf                                  6      0.0000       0.00000       A     3.39791e-01     4.48492e-01
 c18bf                                  6      0.0000       0.00000       A     3.39791e-01     4.48492e-01
 c19bf                                  6      0.0000       0.00000       A     3.39089e-01     4.49819e-01
 c20bf                                  6      0.0000       0.00000       A     3.40042e-01     4.52313e-01
 c21bf                                  6      0.0000       0.00000       A     3.40042e-01     4.52313e-01
 c22bf                                  6      0.0000       0.00000       A     3.31500e-01     4.12954e-01
 c23bf                                  6      0.0000       0.00000       A     3.31537e-01     4.12911e-01
 c24bf                                  6      0.0000       0.00000       A     3.31447e-01     4.13468e-01
 c25bf                                  6      0.0000       0.00000       A     3.31435e-01     4.13020e-01
 c26bf                                  6      0.0000       0.00000       A     3.31482e-01     4.11010e-01
 c27bf                                  6      0.0000       0.00000       A     3.31435e-01     4.13522e-01
 c28bf                                  6      0.0000       0.00000       A     3.31502e-01     4.12841e-01
 c29bf                                  6      0.0000       0.00000       A     3.31437e-01     4.11912e-01
 c30bf                                  6      0.0000       0.00000       A     3.31426e-01     4.13763e-01
 c31bf                                  6      0.0000       0.00000       A     3.40385e-01     4.53047e-01
 c32bf                                  6      0.0000       0.00000       A     3.39953e-01     4.53427e-01
 c33bf                                  6      0.0000       0.00000       A     3.39541e-01     4.52889e-01
 c34bf                                  6      0.0000       0.00000       A     3.39783e-01     4.49817e-01
 c35bf                                  6      0.0000       0.00000       A     3.39783e-01     4.49817e-01
 c36bf                                  6      0.0000       0.00000       A     3.39541e-01     4.52889e-01
 c37bf                                  6      0.0000       0.00000       A     3.39953e-01     4.53427e-01
 cl38bf                                17      0.0000       0.00000       A     3.46346e-01     1.10398e+00
 f39bf                                  9      0.0000       0.00000       A     3.03457e-01     3.49755e-01
 h40bf                                  1      0.0000       0.00000       A     2.62545e-01     6.77021e-02
 h41bf                                  1      0.0000       0.00000       A     2.53621e-01     6.72663e-02
 h42bf                                  1      0.0000       0.00000       A     1.10411e-01     4.09392e-02
 h43bf                                  1      0.0000       0.00000       A     2.42017e-01     8.80456e-02
 h44bf                                  1      0.0000       0.00000       A     2.42017e-01     8.80456e-02
 h45bf                                  1      0.0000       0.00000       A     2.41770e-01     8.68852e-02
 h46bf                                  1      0.0000       0.00000       A     2.41770e-01     8.68852e-02
 h47bf                                  1      0.0000       0.00000       A     1.89725e-01     8.84605e-02
 h48bf                                  1      0.0000       0.00000       A     1.89725e-01     8.84605e-02
 h49bf                                  1      0.0000       0.00000       A     2.41770e-01     8.68852e-02
 h50bf                                  1      0.0000       0.00000       A     2.41770e-01     8.68852e-02
 h51bf                                  1      0.0000       0.00000       A     2.60102e-01     8.79977e-02
 h52bf                                  1      0.0000       0.00000       A     2.60102e-01     8.79977e-02
 h53bf                                  1      0.0000       0.00000       A     2.60102e-01     8.79977e-02
 h54bf                                  1      0.0000       0.00000       A     2.60102e-01     8.79977e-02
 h55bf                                  1      0.0000       0.00000       A     2.62505e-01     6.72312e-02
 h56bf                                  1      0.0000       0.00000       A     2.62512e-01     6.75552e-02
 h57bf                                  1      0.0000       0.00000       A     2.62512e-01     6.75552e-02
 h58bf                                  1      0.0000       0.00000       A     2.62531e-01     6.75169e-02
 h59bf                                  1      0.0000       0.00000       A     2.59992e-01     8.67272e-02
 h60bf                                  1      0.0000       0.00000       A     2.59992e-01     8.67272e-02
 h61bf                                  1      0.0000       0.00000       A     2.59621e-01     8.75221e-02
 h62bf                                  1      0.0000       0.00000       A     1.90181e-01     8.54376e-02
 h63bf                                  1      0.0000       0.00000       A     1.90181e-01     8.54376e-02
 h64bf                                  1      0.0000       0.00000       A     1.90181e-01     8.54376e-02
 h65bf                                  1      0.0000       0.00000       A     1.90181e-01     8.54376e-02
 h66bf                                  1      0.0000       0.00000       A     2.59621e-01     8.75221e-02
 h67bf                                  1      0.0000       0.00000       A     2.59621e-01     8.75221e-02
 h68bf                                  1      0.0000       0.00000       A     2.59992e-01     8.67272e-02
 h69bf                                  1      0.0000       0.00000       A     2.59992e-01     8.67272e-02
 h70bf                                  1      0.0000       0.00000       A     1.10411e-01     4.09392e-02
 h71bf                                  1      0.0000       0.00000       A     2.59621e-01     8.75221e-02
 h72bf                                  1      0.0000       0.00000       A     2.62510e-01     6.72600e-02
 o73bf                                  8      0.0000       0.00000       A     3.06057e-01     5.91529e-01

[ moleculetype ]
;name             nrexcl
 MRTX_60_7RPZ          3

[ atoms ]
;       nr            type      resi   res      atom      cgnr      charge          mass ; qtot
         1            c0bf         1   UNL        c0         1    -0.21159       12.0110 ; qtot   -0.212
         2            n1bf         1   UNL        n1         2    -0.21431       14.0070 ; qtot   -0.426
         3            o2bf         1   UNL        o2         3    -0.44506       15.9990 ; qtot   -0.871
         4            c3bf         1   UNL        c3         4     0.09001       12.0110 ; qtot   -0.781
         5            n4bf         1   UNL        n4         5    -0.30392       14.0070 ; qtot   -1.085
         6            c5bf         1   UNL        c5         6     0.41068       12.0110 ; qtot   -0.674
         7            n6bf         1   UNL        n6         7    -0.64486       14.0070 ; qtot   -1.319
         8            c7bf         1   UNL        c7         8     0.42244       12.0110 ; qtot   -0.897
         9            n8bf         1   UNL        n8         9    -0.75767       14.0070 ; qtot   -1.654
        10            c9bf         1   UNL        c9        10     0.39442       12.0110 ; qtot   -1.260
        11           n10bf         1   UNL       n10        11    -0.84599       14.0070 ; qtot   -2.106
        12           c11bf         1   UNL       c11        12     0.37844       12.0110 ; qtot   -1.727
        13           n12bf         1   UNL       n12        13    -0.15622       14.0070 ; qtot   -1.884
        14           c13bf         1   UNL       c13        14     0.13781       12.0110 ; qtot   -1.746
        15           c14bf         1   UNL       c14        15    -0.11297       12.0110 ; qtot   -1.859
        16           c15bf         1   UNL       c15        16     0.17771       12.0110 ; qtot   -1.681
        17           c16bf         1   UNL       c16        17     0.18761       12.0110 ; qtot   -1.493
        18           c17bf         1   UNL       c17        18     0.12189       12.0110 ; qtot   -1.372
        19           c18bf         1   UNL       c18        19     0.12189       12.0110 ; qtot   -1.250
        20           c19bf         1   UNL       c19        20     0.18761       12.0110 ; qtot   -1.062
        21           c20bf         1   UNL       c20        21    -0.08895       12.0110 ; qtot   -1.151
        22           c21bf         1   UNL       c21        22    -0.08895       12.0110 ; qtot   -1.240
        23           c22bf         1   UNL       c22        23    -0.07642       12.0110 ; qtot   -1.316
        24           c23bf         1   UNL       c23        24    -0.11750       12.0110 ; qtot   -1.434
        25           c24bf         1   UNL       c24        25    -0.08334       12.0110 ; qtot   -1.517
        26           c25bf         1   UNL       c25        26    -0.04035       12.0110 ; qtot   -1.558
        27           c26bf         1   UNL       c26        27     0.00432       12.0110 ; qtot   -1.553
        28           c27bf         1   UNL       c27        28    -0.09152       12.0110 ; qtot   -1.645
        29           c28bf         1   UNL       c28        29    -0.10617       12.0110 ; qtot   -1.751
        30           c29bf         1   UNL       c29        30    -0.10432       12.0110 ; qtot   -1.855
        31           c30bf         1   UNL       c30        31     0.13885       12.0110 ; qtot   -1.716
        32           c31bf         1   UNL       c31        32     0.11500       12.0110 ; qtot   -1.601
        33           c32bf         1   UNL       c32        33    -0.07950       12.0110 ; qtot   -1.681
        34           c33bf         1   UNL       c33        34    -0.10062       12.0110 ; qtot   -1.782
        35           c34bf         1   UNL       c34        35     0.08314       12.0110 ; qtot   -1.698
        36           c35bf         1   UNL       c35        36     0.08314       12.0110 ; qtot   -1.615
        37           c36bf         1   UNL       c36        37    -0.10062       12.0110 ; qtot   -1.716
        38           c37bf         1   UNL       c37        38    -0.07950       12.0110 ; qtot   -1.795
        39          cl38bf         1   UNL      cl38        39    -0.20463       35.4530 ; qtot   -2.000
        40           f39bf         1   UNL       f39        40    -0.14733       18.9980 ; qtot   -2.147
        41           h40bf         1   UNL       h40        41     0.11879        1.0080 ; qtot   -2.029
        42           h41bf         1   UNL       h41        42     0.03299        1.0080 ; qtot   -1.996
        43           h42bf         1   UNL       h42        43     0.51984        1.0080 ; qtot   -1.476
        44           h43bf         1   UNL       h43        44     0.07457        1.0080 ; qtot   -1.401
        45           h44bf         1   UNL       h44        45     0.07457        1.0080 ; qtot   -1.327
        46           h45bf         1   UNL       h45        46     0.09494        1.0080 ; qtot   -1.232
        47           h46bf         1   UNL       h46        47     0.09494        1.0080 ; qtot   -1.137
        48           h47bf         1   UNL       h47        48     0.12104        1.0080 ; qtot   -1.016
        49           h48bf         1   UNL       h48        49     0.12104        1.0080 ; qtot   -0.895
        50           h49bf         1   UNL       h49        50     0.09494        1.0080 ; qtot   -0.800
        51           h50bf         1   UNL       h50        51     0.09494        1.0080 ; qtot   -0.705
        52           h51bf         1   UNL       h51        52     0.09222        1.0080 ; qtot   -0.613
        53           h52bf         1   UNL       h52        53     0.09222        1.0080 ; qtot   -0.520
        54           h53bf         1   UNL       h53        54     0.09222        1.0080 ; qtot   -0.428
        55           h54bf         1   UNL       h54        55     0.09222        1.0080 ; qtot   -0.336
        56           h55bf         1   UNL       h55        56     0.12482        1.0080 ; qtot   -0.211
        57           h56bf         1   UNL       h56        57     0.11895        1.0080 ; qtot   -0.092
        58           h57bf         1   UNL       h57        58     0.11977        1.0080 ; qtot    0.028
        59           h58bf         1   UNL       h58        59     0.12255        1.0080 ; qtot    0.150
        60           h59bf         1   UNL       h59        60     0.07078        1.0080 ; qtot    0.221
        61           h60bf         1   UNL       h60        61     0.07078        1.0080 ; qtot    0.292
        62           h61bf         1   UNL       h61        62     0.07080        1.0080 ; qtot    0.363
        63           h62bf         1   UNL       h62        63     0.07681        1.0080 ; qtot    0.439
        64           h63bf         1   UNL       h63        64     0.07681        1.0080 ; qtot    0.516
        65           h64bf         1   UNL       h64        65     0.07681        1.0080 ; qtot    0.593
        66           h65bf         1   UNL       h65        66     0.07681        1.0080 ; qtot    0.670
        67           h66bf         1   UNL       h66        67     0.07080        1.0080 ; qtot    0.741
        68           h67bf         1   UNL       h67        68     0.07080        1.0080 ; qtot    0.811
        69           h68bf         1   UNL       h68        69     0.07078        1.0080 ; qtot    0.882
        70           h69bf         1   UNL       h69        70     0.07078        1.0080 ; qtot    0.953
        71           h70bf         1   UNL       h70        71     0.51984        1.0080 ; qtot    1.473
        72           h71bf         1   UNL       h71        72     0.07080        1.0080 ; qtot    1.544
        73           h72bf         1   UNL       h72        73     0.13132        1.0080 ; qtot    1.675
        74           o73bf         1   UNL       o73        74    -0.67494       15.9990 ; qtot    1.000

[ bonds ]
;       ai        aj funct               r               k
         1         4     1        0.142351   252679.712256
         1         8     1        0.143822   227380.327832
         1        10     1        0.141682   262744.780859
         2         4     1        0.135874   295266.289648
         2         6     1        0.131250   349439.104639
         3         6     1        0.135545   252525.978857
         3        16     1        0.143928   180901.039478
         4        14     1        0.141417   264484.496436
         5         6     1        0.134328   270149.980762
         5         8     1        0.132178   353485.944824
         7        10     1        0.131821   376153.653516
         7        12     1        0.136003   259214.377637
         8         9     1        0.140901   232824.507568
         9        17     1        0.146948   183317.692749
         9        20     1        0.146948   183317.692749
        10        42     1        0.108667   316685.335840
        11        18     1        0.152806   112905.191479
        11        19     1        0.152806   112905.191479
        11        43     1        0.102639   386120.761768
        11        71     1        0.102639   386120.761768
        12        14     1        0.138449   297824.929248
        12        15     1        0.149070   209427.407959
        13        32     1        0.156660    59434.283093
        13        35     1        0.151461   125994.466724
        13        36     1        0.151461   125994.466724
        13        74     1        0.137128   203106.718018
        14        40     1        0.134924   301418.562354
        15        23     1        0.138394   331227.493848
        15        27     1        0.143669   233644.682910
        16        32     1        0.152911   176729.361133
        16        44     1        0.109294   301859.511621
        16        45     1        0.109294   301859.511621
        17        18     1        0.153876   169198.544189
        17        46     1        0.109342   300785.701709
        17        47     1        0.109342   300785.701709
        18        22     1        0.153955   164525.878833
        18        48     1        0.109058   317545.502295
        19        20     1        0.153876   169198.544189
        19        21     1        0.153955   164525.878833
        19        49     1        0.109058   317545.502295
        20        50     1        0.109342   300785.701709
        20        51     1        0.109342   300785.701709
        21        22     1        0.155779   153880.211279
        21        52     1        0.109165   310874.034619
        21        53     1        0.109165   310874.034619
        22        54     1        0.109165   310874.034619
        22        55     1        0.109165   310874.034619
        23        24     1        0.141121   287199.908447
        23        56     1        0.108493   322010.742480
        24        25     1        0.137526   363953.452734
        24        41     1        0.108622   319800.709961
        25        26     1        0.142045   273928.808984
        25        57     1        0.108594   319344.872559
        26        27     1        0.144434   224502.142383
        26        28     1        0.142036   273931.464844
        27        31     1        0.143304   230613.581250
        28        29     1        0.137489   366314.843701
        28        58     1        0.108574   319836.947119
        29        30     1        0.141127   284490.957422
        29        59     1        0.108580   321786.245752
        30        31     1        0.138272   329221.860352
        30        73     1        0.108447   324123.197705
        31        39     1        0.176236   138563.717041
        32        33     1        0.153742   162145.283960
        32        38     1        0.153742   162145.283960
        33        34     1        0.154948   161663.564697
        33        60     1        0.109257   306067.874023
        33        61     1        0.109257   306067.874023
        34        35     1        0.153660   172522.211743
        34        62     1        0.109208   309739.931592
        34        72     1        0.109208   309739.931592
        35        63     1        0.109071   310836.724902
        35        64     1        0.109071   310836.724902
        36        37     1        0.153660   172522.211743
        36        65     1        0.109071   310836.724902
        36        66     1        0.109071   310836.724902
        37        38     1        0.154948   161663.564697
        37        67     1        0.109208   309739.957129
        37        68     1        0.109208   309739.957129
        38        69     1        0.109257   306067.848486
        38        70     1        0.109257   306067.874023

[ angles ]
;       ai        aj        ak funct           theta             cth
         1         4         2     1      123.109451      750.938620
         1         4        14     1      116.586258      705.646450
         1         8         5     1      120.872849      576.881066
         1         8         9     1      121.465836      413.946169
         1        10         7     1      124.063927      615.128825
         1        10        42     1      120.299706      403.858308
         2         4        14     1      120.251244      365.502879
         2         6         3     1      116.776024      507.972177
         2         6         5     1      128.384598      623.368501
         3         6         5     1      114.709961      509.687345
         3        16        32     1      108.674721      571.322468
         3        16        44     1      109.025711      449.643281
         3        16        45     1      109.025711      449.643281
         4         1         8     1      115.028336      913.148615
         4         1        10     1      117.458351      814.165183
         4         2         6     1      115.318283      457.022995
         4        14        12     1      121.414879      630.452623
         4        14        40     1      117.710228      470.978706
         5         8         9     1      117.327171      560.382434
         6         3        16     1      117.858986      529.695575
         6         5         8     1      117.677528      860.031811
         7        10        42     1      116.178848      382.026282
         7        12        14     1      120.714943      652.162103
         7        12        15     1      116.977196      537.710524
         8         1        10     1      126.882797      516.944194
         8         9        17     1      116.649673      545.542436
         8         9        20     1      116.649673      545.542373
         9        17        18     1      110.414001      573.649664
         9        17        46     1      109.994041      435.580952
         9        17        47     1      109.994041      435.580952
         9        20        19     1      110.414001      573.649664
         9        20        50     1      109.994041      435.580952
         9        20        51     1      109.994041      435.580952
        10         7        12     1      119.386574      623.357903
        11        18        17     1      106.602722      674.110546
        11        18        22     1      101.418640      536.716811
        11        18        48     1      108.498741      494.510641
        11        19        20     1      106.602722      674.110546
        11        19        21     1      101.418633      536.716811
        11        19        49     1      108.498741      494.510641
        12        14        40     1      120.043236      449.199988
        12        15        23     1      116.217453      557.979583
        12        15        27     1      124.048660      408.237571
        13        32        16     1      108.827393      616.193786
        13        32        33     1      102.870438      492.339540
        13        32        38     1      102.870438      492.339540
        13        35        34     1      103.955788      535.503799
        13        35        63     1      107.453453      489.343526
        13        35        64     1      107.453453      489.343526
        13        36        37     1      103.955788      535.503799
        13        36        65     1      107.453453      489.343526
        13        36        66     1      107.453453      489.343526
        14        12        15     1      121.062279      435.082787
        15        23        24     1      121.654984      675.425132
        15        23        56     1      118.654823      416.715636
        15        27        26     1      117.328392      737.310359
        15        27        31     1      126.635841      381.112341
        16        32        33     1      112.123215      551.485496
        16        32        38     1      112.123215      551.485496
        17         9        20     1      112.989647      531.622350
        17        18        22     1      113.199745      580.112915
        17        18        48     1      110.856812      458.517267
        18        11        19     1      101.779678      586.160933
        18        11        43     1      111.672134      452.606639
        18        11        71     1      111.672134      452.606639
        18        17        46     1      109.425522      473.224279
        18        17        47     1      109.425522      473.224279
        18        22        21     1      105.201950      510.005282
        18        22        54     1      110.206017      481.946958
        18        22        55     1      110.206017      481.946958
        19        11        43     1      111.672134      452.606639
        19        11        71     1      111.672134      452.606639
        19        20        50     1      109.425522      473.224279
        19        20        51     1      109.425522      473.224279
        19        21        22     1      105.201950      510.005282
        19        21        52     1      110.206017      481.946958
        19        21        53     1      110.206017      481.946958
        20        19        21     1      113.199745      580.112915
        20        19        49     1      110.856812      458.517267
        21        19        49     1      114.036781      411.209740
        21        22        54     1      111.675720      437.142291
        21        22        55     1      111.675720      437.142291
        22        18        48     1      114.036781      411.209740
        22        21        52     1      111.675720      437.142291
        22        21        53     1      111.675720      437.142291
        23        15        27     1      119.662170      565.688215
        23        24        25     1      119.426170      731.500794
        23        24        41     1      119.758034      445.846966
        24        23        56     1      119.660751      432.382940
        24        25        26     1      120.709641      598.299104
        24        25        57     1      120.624916      433.764051
        25        24        41     1      120.655106      450.086860
        25        26        27     1      120.116196      721.016278
        25        26        28     1      119.102341      429.174170
        26        25        57     1      118.637245      431.327970
        26        27        31     1      115.716965      716.901356
        26        28        29     1      120.847733      590.748994
        26        28        58     1      118.628769      430.825527
        27        26        28     1      120.269531      720.049252
        27        31        30     1      121.871254      575.719575
        27        31        39     1      122.946487      352.250140
        28        29        30     1      119.581627      695.975483
        28        29        59     1      120.793457      442.644166
        29        28        58     1      120.548401      440.938127
        29        30        31     1      120.724182      617.232444
        29        30        73     1      120.186096      438.743117
        30        29        59     1      119.382706      447.696491
        30        31        39     1      114.380447      390.454773
        31        30        73     1      119.156784      404.384724
        32        13        35     1      103.495872      450.349126
        32        13        36     1      103.495872      450.349126
        32        13        74     1      111.439964      567.720267
        32        16        44     1      110.212120      461.605118
        32        16        45     1      110.212120      461.605118
        32        33        34     1      104.680008      495.139684
        32        33        60     1      110.318100      467.500871
        32        33        61     1      110.318100      467.500871
        32        38        37     1      104.680008      495.139684
        32        38        69     1      110.318100      467.500871
        32        38        70     1      110.318100      467.500871
        33        32        38     1      115.884689      447.823187
        33        34        35     1      104.456421      521.790563
        33        34        62     1      111.543983      469.571260
        33        34        72     1      111.543983      469.571260
        34        33        60     1      111.465637      465.835372
        34        33        61     1      111.465637      465.835372
        34        35        63     1      113.619080      427.908870
        34        35        64     1      113.619080      427.908870
        35        13        36     1      113.535080      443.990737
        35        13        74     1      110.028519      586.786400
        35        34        62     1      110.860008      488.015022
        35        34        72     1      110.860008      488.015022
        36        13        74     1      110.028519      586.786400
        36        37        38     1      104.456421      521.790626
        36        37        67     1      110.860008      488.015022
        36        37        68     1      110.860008      488.015022
        37        36        65     1      113.619080      427.908870
        37        36        66     1      113.619080      427.908870
        37        38        69     1      111.465637      465.835372
        37        38        70     1      111.465637      465.835372
        38        37        67     1      111.543983      469.571260
        38        37        68     1      111.543983      469.571260
        43        11        71     1      107.850487      393.501765
        44        16        45     1      108.793800      341.400252
        46        17        47     1      107.831497      345.579975
        50        20        51     1      107.831497      345.579975
        52        21        53     1      107.532188      357.637353
        54        22        55     1      107.532188      357.637353
        60        33        61     1      107.512741      359.738451
        62        34        72     1      107.540756      357.593238
        63        35        64     1      109.542801      341.541728
        65        36        66     1      109.542801      341.541728
        67        37        68     1      107.540756      357.593238
        69        38        70     1      107.512741      359.738451

[ dihedrals ] ; propers for gromacs 4.5 or higher, use funct 9
;       ai        aj        ak        al funct           phase               k        pn
         1         4         2         6     9        0.000000       -0.295850         1
         1         4         2         6     9      180.000000       13.544450         2
         1         4         2         6     9        0.000000       -0.482072         3
         1         4         2         6     9      180.000000       -0.373165         4
         1         4        14        12     9        0.000000       -0.158434         1
         1         4        14        12     9      180.000000       11.922141         2
         1         4        14        12     9        0.000000       -0.960135         3
         1         4        14        12     9      180.000000       -0.093267         4
         1         4        14        40     9        0.000000        0.318053         1
         1         4        14        40     9      180.000000       18.653661         2
         1         4        14        40     9        0.000000        0.172680         3
         1         4        14        40     9      180.000000       -0.580667         4
         1         8         5         6     9        0.000000        0.225022         1
         1         8         5         6     9      180.000000       18.721847         2
         1         8         5         6     9        0.000000       -0.984817         3
         1         8         5         6     9      180.000000       -0.497124         4
         1         8         9        17     9        0.000000        5.434533         1
         1         8         9        17     9      180.000000        7.654269         2
         1         8         9        17     9        0.000000       -0.102297         3
         1         8         9        17     9      180.000000        0.277433         4
         1         8         9        20     9        0.000000        5.434533         1
         1         8         9        20     9      180.000000        7.654269         2
         1         8         9        20     9        0.000000       -0.102297         3
         1         8         9        20     9      180.000000        0.277433         4
         1        10         7        12     9        0.000000       -0.168242         1
         1        10         7        12     9      180.000000       24.831433         2
         1        10         7        12     9        0.000000       -0.956051         3
         1        10         7        12     9      180.000000       -0.144741         4
         2         4         1         8     9        0.000000       -0.468370         1
         2         4         1         8     9      180.000000       12.186483         2
         2         4         1         8     9        0.000000       -0.665624         3
         2         4         1         8     9      180.000000       -0.336122         4
         2         4         1        10     9        0.000000       -0.018610         1
         2         4         1        10     9      180.000000       11.578075         2
         2         4         1        10     9        0.000000       -0.132910         3
         2         4         1        10     9      180.000000       -0.303325         4
         2         4        14        12     9        0.000000        0.534066         1
         2         4        14        12     9      180.000000       11.163747         2
         2         4        14        12     9        0.000000        0.374255         3
         2         4        14        12     9      180.000000       -0.332327         4
         2         4        14        40     9        0.000000        0.226307         1
         2         4        14        40     9      180.000000       19.062201         2
         2         4        14        40     9        0.000000        0.282178         3
         2         4        14        40     9      180.000000       -0.647120         4
         2         6         3        16     9        0.000000       -0.376151         1
         2         6         3        16     9      180.000000        8.213356         2
         2         6         3        16     9        0.000000       -0.265720         3
         2         6         3        16     9      180.000000       -0.028955         4
         2         6         5         8     9        0.000000        0.660531         1
         2         6         5         8     9      180.000000       10.715258         2
         2         6         5         8     9        0.000000        0.263610         3
         2         6         5         8     9      180.000000       -0.480731         4
         3         6         2         4     9        0.000000        0.412786         1
         3         6         2         4     9      180.000000       25.915707         2
         3         6         2         4     9        0.000000        1.057932         3
         3         6         2         4     9      180.000000       -1.627935         4
         3         6         5         8     9        0.000000        0.732331         1
         3         6         5         8     9      180.000000       18.800019         2
         3         6         5         8     9        0.000000        0.619407         3
         3         6         5         8     9      180.000000       -1.005107         4
         3        16        32        13     9        0.000000       -4.755926         1
         3        16        32        13     9      180.000000       -2.008770         2
         3        16        32        13     9        0.000000        0.331835         3
         3        16        32        13     9      180.000000       -0.083859         4
         3        16        32        33     9        0.000000        0.768140         1
         3        16        32        33     9      180.000000        0.796962         2
         3        16        32        33     9        0.000000        0.632778         3
         3        16        32        33     9      180.000000       -0.004962         4
         3        16        32        38     9        0.000000        0.768140         1
         3        16        32        38     9      180.000000        0.796962         2
         3        16        32        38     9        0.000000        0.632778         3
         3        16        32        38     9      180.000000       -0.004962         4
         4         1         8         5     9        0.000000       -0.528114         1
         4         1         8         5     9      180.000000        6.708900         2
         4         1         8         5     9        0.000000       -0.031090         3
         4         1         8         5     9      180.000000       -0.300154         4
         4         1         8         9     9        0.000000        0.405994         1
         4         1         8         9     9      180.000000       11.105957         2
         4         1         8         9     9        0.000000        0.610926         3
         4         1         8         9     9      180.000000       -0.512438         4
         4         1        10         7     9        0.000000       -0.042493         1
         4         1        10         7     9      180.000000       13.807455         2
         4         1        10         7     9        0.000000       -0.604006         3
         4         1        10         7     9      180.000000       -0.367502         4
         4         1        10        42     9        0.000000       -0.015181         1
         4         1        10        42     9      180.000000       11.648420         2
         4         1        10        42     9        0.000000       -0.266142         3
         4         1        10        42     9      180.000000       -0.160707         4
         4         2         6         5     9        0.000000        0.229447         1
         4         2         6         5     9      180.000000       15.359045         2
         4         2         6         5     9        0.000000        0.791689         3
         4         2         6         5     9      180.000000       -0.763128         4
         4        14        12         7     9        0.000000       -0.175919         1
         4        14        12         7     9      180.000000       13.349261         2
         4        14        12         7     9        0.000000       -0.335288         3
         4        14        12         7     9      180.000000       -0.388056         4
         4        14        12        15     9        0.000000        0.188043         1
         4        14        12        15     9      180.000000       14.880322         2
         4        14        12        15     9        0.000000        0.089132         3
         4        14        12        15     9      180.000000       -0.638855         4
         5         6         3        16     9        0.000000        0.872727         1
         5         6         3        16     9      180.000000        7.973642         2
         5         6         3        16     9        0.000000        0.143877         3
         5         6         3        16     9      180.000000       -0.127209         4
         5         8         1        10     9        0.000000       -0.996952         1
         5         8         1        10     9      180.000000        4.801242         2
         5         8         1        10     9        0.000000       -0.252600         3
         5         8         1        10     9      180.000000       -0.286416         4
         5         8         9        17     9        0.000000       -1.227826         1
         5         8         9        17     9      180.000000        9.662345         2
         5         8         9        17     9        0.000000       -0.205593         3
         5         8         9        17     9      180.000000        0.178658         4
         5         8         9        20     9        0.000000       -1.227826         1
         5         8         9        20     9      180.000000        9.662345         2
         5         8         9        20     9        0.000000       -0.205593         3
         5         8         9        20     9      180.000000        0.178658         4
         6         2         4        14     9        0.000000       -0.306172         1
         6         2         4        14     9      180.000000       13.623295         2
         6         2         4        14     9        0.000000       -0.059620         3
         6         2         4        14     9      180.000000       -0.321551         4
         6         3        16        32     9        0.000000       -3.719893         1
         6         3        16        32     9      180.000000       -0.574557         2
         6         3        16        32     9        0.000000        0.066042         3
         6         3        16        32     9      180.000000        0.050419         4
         6         3        16        44     9        0.000000        0.108459         1
         6         3        16        44     9      180.000000        0.251813         2
         6         3        16        44     9        0.000000        0.328101         3
         6         3        16        44     9      180.000000        0.073531         4
         6         3        16        45     9        0.000000        0.108459         1
         6         3        16        45     9      180.000000        0.251813         2
         6         3        16        45     9        0.000000        0.328101         3
         6         3        16        45     9      180.000000        0.073531         4
         6         5         8         9     9        0.000000        0.184154         1
         6         5         8         9     9      180.000000       24.542966         2
         6         5         8         9     9        0.000000        0.122818         3
         6         5         8         9     9      180.000000       -1.084633         4
         7        10         1         8     9        0.000000       -0.911213         1
         7        10         1         8     9      180.000000       11.023641         2
         7        10         1         8     9        0.000000       -0.333461         3
         7        10         1         8     9      180.000000       -0.281768         4
         7        12        14        40     9        0.000000       -0.039429         1
         7        12        14        40     9      180.000000       21.701918         2
         7        12        14        40     9        0.000000        0.216979         3
         7        12        14        40     9      180.000000       -1.101919         4
         7        12        15        23     9        0.000000        1.535337         1
         7        12        15        23     9      180.000000        3.863777         2
         7        12        15        23     9        0.000000       -0.273889         3
         7        12        15        23     9      180.000000        0.367034         4
         7        12        15        27     9        0.000000       -2.406343         1
         7        12        15        27     9      180.000000        4.595827         2
         7        12        15        27     9        0.000000        0.723385         3
         7        12        15        27     9      180.000000       -0.187988         4
         8         1         4        14     9        0.000000       -0.875673         1
         8         1         4        14     9      180.000000       12.069203         2
         8         1         4        14     9        0.000000       -1.665482         3
         8         1         4        14     9      180.000000       -0.248650         4
         8         1        10        42     9        0.000000       -0.135678         1
         8         1        10        42     9      180.000000        9.858751         2
         8         1        10        42     9        0.000000       -0.358959         3
         8         1        10        42     9      180.000000       -0.032663         4
         8         9        17        18     9        0.000000       -3.160918         1
         8         9        17        18     9      180.000000       -0.589006         2
         8         9        17        18     9        0.000000        0.354310         3
         8         9        17        18     9      180.000000       -0.069445         4
         8         9        17        46     9        0.000000        0.010062         1
         8         9        17        46     9      180.000000        0.194484         2
         8         9        17        46     9        0.000000        0.191535         3
         8         9        17        46     9      180.000000        0.106044         4
         8         9        17        47     9        0.000000        0.010062         1
         8         9        17        47     9      180.000000        0.194484         2
         8         9        17        47     9        0.000000        0.191535         3
         8         9        17        47     9      180.000000        0.106044         4
         8         9        20        19     9        0.000000       -3.160918         1
         8         9        20        19     9      180.000000       -0.589006         2
         8         9        20        19     9        0.000000        0.354310         3
         8         9        20        19     9      180.000000       -0.069445         4
         8         9        20        50     9        0.000000        0.010062         1
         8         9        20        50     9      180.000000        0.194484         2
         8         9        20        50     9        0.000000        0.191535         3
         8         9        20        50     9      180.000000        0.106044         4
         8         9        20        51     9        0.000000        0.010062         1
         8         9        20        51     9      180.000000        0.194484         2
         8         9        20        51     9        0.000000        0.191535         3
         8         9        20        51     9      180.000000        0.106044         4
         9         8         1        10     9        0.000000        0.592968         1
         9         8         1        10     9      180.000000        8.539503         2
         9         8         1        10     9        0.000000        0.493115         3
         9         8         1        10     9      180.000000       -0.486278         4
         9        17        18        11     9        0.000000       10.360260         1
         9        17        18        11     9      180.000000       -0.455638         2
         9        17        18        11     9        0.000000        1.252755         3
         9        17        18        11     9      180.000000       -0.383471         4
         9        17        18        22     9        0.000000        8.665241         1
         9        17        18        22     9      180.000000        3.003229         2
         9        17        18        22     9        0.000000        1.172798         3
         9        17        18        22     9      180.000000       -0.235254         4
         9        17        18        48     9        0.000000        0.208834         1
         9        17        18        48     9      180.000000       -1.298774         2
         9        17        18        48     9        0.000000        0.789454         3
         9        17        18        48     9      180.000000        0.143387         4
         9        20        19        11     9        0.000000       10.360260         1
         9        20        19        11     9      180.000000       -0.455638         2
         9        20        19        11     9        0.000000        1.252755         3
         9        20        19        11     9      180.000000       -0.383471         4
         9        20        19        21     9        0.000000        8.665241         1
         9        20        19        21     9      180.000000        3.003229         2
         9        20        19        21     9        0.000000        1.172798         3
         9        20        19        21     9      180.000000       -0.235254         4
         9        20        19        49     9        0.000000        0.208834         1
         9        20        19        49     9      180.000000       -1.298774         2
         9        20        19        49     9        0.000000        0.789454         3
         9        20        19        49     9      180.000000        0.143387         4
        10         1         4        14     9        0.000000       -0.329036         1
        10         1         4        14     9      180.000000       10.718689         2
        10         1         4        14     9        0.000000       -1.144445         3
        10         1         4        14     9      180.000000       -0.069498         4
        10         7        12        14     9        0.000000       -0.176065         1
        10         7        12        14     9      180.000000       19.211771         2
        10         7        12        14     9        0.000000        0.107916         3
        10         7        12        14     9      180.000000       -0.109287         4
        10         7        12        15     9        0.000000        0.285986         1
        10         7        12        15     9      180.000000       22.985669         2
        10         7        12        15     9        0.000000        1.194422         3
        10         7        12        15     9      180.000000       -1.028195         4
        11        18        17        46     9        0.000000       -0.109134         1
        11        18        17        46     9      180.000000        0.138444         2
        11        18        17        46     9        0.000000        0.755957         3
        11        18        17        46     9      180.000000       -0.087097         4
        11        18        17        47     9        0.000000       -0.109134         1
        11        18        17        47     9      180.000000        0.138444         2
        11        18        17        47     9        0.000000        0.755957         3
        11        18        17        47     9      180.000000       -0.087097         4
        11        18        22        21     9        0.000000       -6.720876         1
        11        18        22        21     9      180.000000       11.285324         2
        11        18        22        21     9        0.000000        0.310730         3
        11        18        22        21     9      180.000000       -2.781275         4
        11        18        22        54     9        0.000000       -0.566248         1
        11        18        22        54     9      180.000000        0.138173         2
        11        18        22        54     9        0.000000        0.237111         3
        11        18        22        54     9      180.000000       -0.093241         4
        11        18        22        55     9        0.000000       -0.566248         1
        11        18        22        55     9      180.000000        0.138173         2
        11        18        22        55     9        0.000000        0.237111         3
        11        18        22        55     9      180.000000       -0.093241         4
        11        19        20        50     9        0.000000       -0.109134         1
        11        19        20        50     9      180.000000        0.138444         2
        11        19        20        50     9        0.000000        0.755957         3
        11        19        20        50     9      180.000000       -0.087097         4
        11        19        20        51     9        0.000000       -0.109134         1
        11        19        20        51     9      180.000000        0.138444         2
        11        19        20        51     9        0.000000        0.755957         3
        11        19        20        51     9      180.000000       -0.087097         4
        11        19        21        22     9        0.000000       -6.720876         1
        11        19        21        22     9      180.000000       11.285324         2
        11        19        21        22     9        0.000000        0.310730         3
        11        19        21        22     9      180.000000       -2.781275         4
        11        19        21        52     9        0.000000       -0.566248         1
        11        19        21        52     9      180.000000        0.138173         2
        11        19        21        52     9        0.000000        0.237111         3
        11        19        21        52     9      180.000000       -0.093241         4
        11        19        21        53     9        0.000000       -0.566248         1
        11        19        21        53     9      180.000000        0.138173         2
        11        19        21        53     9        0.000000        0.237111         3
        11        19        21        53     9      180.000000       -0.093241         4
        12         7        10        42     9        0.000000        0.806796         1
        12         7        10        42     9      180.000000       22.879804         2
        12         7        10        42     9        0.000000        0.224013         3
        12         7        10        42     9      180.000000       -0.316141         4
        12        15        23        24     9        0.000000        0.070742         1
        12        15        23        24     9      180.000000       20.539082         2
        12        15        23        24     9        0.000000       -0.087482         3
        12        15        23        24     9      180.000000       -0.899276         4
        12        15        23        56     9        0.000000       -0.197354         1
        12        15        23        56     9      180.000000       14.860855         2
        12        15        23        56     9        0.000000       -0.378307         3
        12        15        23        56     9      180.000000       -0.017830         4
        12        15        27        26     9        0.000000       -0.226566         1
        12        15        27        26     9      180.000000        6.825278         2
        12        15        27        26     9        0.000000       -0.284866         3
        12        15        27        26     9      180.000000       -0.327605         4
        12        15        27        31     9        0.000000       -0.306924         1
        12        15        27        31     9      180.000000        6.181450         2
        12        15        27        31     9        0.000000        0.364296         3
        12        15        27        31     9      180.000000       -0.550865         4
        13        32        16        44     9        0.000000       -0.019300         1
        13        32        16        44     9      180.000000       -0.015537         2
        13        32        16        44     9        0.000000        0.437952         3
        13        32        16        44     9      180.000000        0.000451         4
        13        32        16        45     9        0.000000       -0.019300         1
        13        32        16        45     9      180.000000       -0.015537         2
        13        32        16        45     9        0.000000        0.437952         3
        13        32        16        45     9      180.000000        0.000451         4
        13        32        33        34     9        0.000000       -0.982323         1
        13        32        33        34     9      180.000000        3.265998         2
        13        32        33        34     9        0.000000       -0.138040         3
        13        32        33        34     9      180.000000       -1.271267         4
        13        32        33        60     9        0.000000       -0.185195         1
        13        32        33        60     9      180.000000       -0.367214         2
        13        32        33        60     9        0.000000        0.009902         3
        13        32        33        60     9      180.000000        0.167159         4
        13        32        33        61     9        0.000000       -0.185195         1
        13        32        33        61     9      180.000000       -0.367214         2
        13        32        33        61     9        0.000000        0.009902         3
        13        32        33        61     9      180.000000        0.167159         4
        13        32        38        37     9        0.000000       -0.982323         1
        13        32        38        37     9      180.000000        3.265998         2
        13        32        38        37     9        0.000000       -0.138040         3
        13        32        38        37     9      180.000000       -1.271267         4
        13        32        38        69     9        0.000000       -0.185195         1
        13        32        38        69     9      180.000000       -0.367214         2
        13        32        38        69     9        0.000000        0.009902         3
        13        32        38        69     9      180.000000        0.167159         4
        13        32        38        70     9        0.000000       -0.185195         1
        13        32        38        70     9      180.000000       -0.367214         2
        13        32        38        70     9        0.000000        0.009902         3
        13        32        38        70     9      180.000000        0.167159         4
        13        35        34        33     9        0.000000       -0.290183         1
        13        35        34        33     9      180.000000        3.854100         2
        13        35        34        33     9        0.000000       -0.162651         3
        13        35        34        33     9      180.000000       -1.783120         4
        13        35        34        62     9        0.000000        0.032513         1
        13        35        34        62     9      180.000000       -0.063501         2
        13        35        34        62     9        0.000000       -0.060034         3
        13        35        34        62     9      180.000000        0.079036         4
        13        35        34        72     9        0.000000        0.032513         1
        13        35        34        72     9      180.000000       -0.063501         2
        13        35        34        72     9        0.000000       -0.060034         3
        13        35        34        72     9      180.000000        0.079036         4
        13        36        37        38     9        0.000000       -0.290183         1
        13        36        37        38     9      180.000000        3.854100         2
        13        36        37        38     9        0.000000       -0.162651         3
        13        36        37        38     9      180.000000       -1.783120         4
        13        36        37        67     9        0.000000        0.032513         1
        13        36        37        67     9      180.000000       -0.063501         2
        13        36        37        67     9        0.000000       -0.060034         3
        13        36        37        67     9      180.000000        0.079036         4
        13        36        37        68     9        0.000000        0.032513         1
        13        36        37        68     9      180.000000       -0.063501         2
        13        36        37        68     9        0.000000       -0.060034         3
        13        36        37        68     9      180.000000        0.079036         4
        14        12        15        23     9        0.000000       -0.076271         1
        14        12        15        23     9      180.000000        4.354977         2
        14        12        15        23     9        0.000000        0.125257         3
        14        12        15        23     9      180.000000        0.374552         4
        14        12        15        27     9        0.000000        0.338784         1
        14        12        15        27     9      180.000000        3.807911         2
        14        12        15        27     9        0.000000        0.633302         3
        14        12        15        27     9      180.000000       -0.061655         4
        15        12        14        40     9        0.000000       -0.064518         1
        15        12        14        40     9      180.000000       21.640280         2
        15        12        14        40     9        0.000000        0.556971         3
        15        12        14        40     9      180.000000       -1.427715         4
        15        23        24        25     9        0.000000       -0.090151         1
        15        23        24        25     9      180.000000       16.448832         2
        15        23        24        25     9        0.000000       -1.396368         3
        15        23        24        25     9      180.000000       -0.407439         4
        15        23        24        41     9        0.000000       -0.204895         1
        15        23        24        41     9      180.000000       13.405392         2
        15        23        24        41     9        0.000000       -0.723037         3
        15        23        24        41     9      180.000000       -0.071498         4
        15        27        26        25     9        0.000000        0.294186         1
        15        27        26        25     9      180.000000       11.327656         2
        15        27        26        25     9        0.000000       -0.322149         3
        15        27        26        25     9      180.000000       -0.197336         4
        15        27        26        28     9        0.000000        0.302869         1
        15        27        26        28     9      180.000000       11.281068         2
        15        27        26        28     9        0.000000       -0.307635         3
        15        27        26        28     9      180.000000       -0.193328         4
        15        27        31        30     9        0.000000       -0.173565         1
        15        27        31        30     9      180.000000        8.256534         2
        15        27        31        30     9        0.000000       -0.181158         3
        15        27        31        30     9      180.000000       -0.461483         4
        15        27        31        39     9        0.000000       -0.773052         1
        15        27        31        39     9      180.000000        9.890967         2
        15        27        31        39     9        0.000000        0.302735         3
        15        27        31        39     9      180.000000       -0.912459         4
        16        32        13        35     9        0.000000        3.004136         1
        16        32        13        35     9      180.000000       -1.350057         2
        16        32        13        35     9        0.000000        0.174127         3
        16        32        13        35     9      180.000000        0.332875         4
        16        32        13        36     9        0.000000        3.004136         1
        16        32        13        36     9      180.000000       -1.350057         2
        16        32        13        36     9        0.000000        0.174127         3
        16        32        13        36     9      180.000000        0.332875         4
        16        32        13        74     9        0.000000        5.511839         1
        16        32        13        74     9      180.000000       -0.843885         2
        16        32        13        74     9        0.000000        0.542590         3
        16        32        13        74     9      180.000000        0.852203         4
        16        32        33        34     9        0.000000        0.224272         1
        16        32        33        34     9      180.000000        0.871649         2
        16        32        33        34     9        0.000000        0.297773         3
        16        32        33        34     9      180.000000        0.197625         4
        16        32        33        60     9        0.000000       -0.164832         1
        16        32        33        60     9      180.000000        0.076559         2
        16        32        33        60     9        0.000000        0.449292         3
        16        32        33        60     9      180.000000       -0.018261         4
        16        32        33        61     9        0.000000       -0.164832         1
        16        32        33        61     9      180.000000        0.076559         2
        16        32        33        61     9        0.000000        0.449292         3
        16        32        33        61     9      180.000000       -0.018261         4
        16        32        38        37     9        0.000000        0.224272         1
        16        32        38        37     9      180.000000        0.871649         2
        16        32        38        37     9        0.000000        0.297773         3
        16        32        38        37     9      180.000000        0.197625         4
        16        32        38        69     9        0.000000       -0.164832         1
        16        32        38        69     9      180.000000        0.076559         2
        16        32        38        69     9        0.000000        0.449292         3
        16        32        38        69     9      180.000000       -0.018261         4
        16        32        38        70     9        0.000000       -0.164832         1
        16        32        38        70     9      180.000000        0.076559         2
        16        32        38        70     9        0.000000        0.449292         3
        16        32        38        70     9      180.000000       -0.018261         4
        17         9        20        19     9        0.000000        3.153127         1
        17         9        20        19     9      180.000000       -3.348937         2
        17         9        20        19     9        0.000000        0.519549         3
        17         9        20        19     9      180.000000        0.090461         4
        17         9        20        50     9        0.000000       -0.428027         1
        17         9        20        50     9      180.000000        0.276117         2
        17         9        20        50     9        0.000000        0.876566         3
        17         9        20        50     9      180.000000       -0.010241         4
        17         9        20        51     9        0.000000       -0.428027         1
        17         9        20        51     9      180.000000        0.276117         2
        17         9        20        51     9        0.000000        0.876566         3
        17         9        20        51     9      180.000000       -0.010241         4
        17        18        11        19     9        0.000000       -0.856050         1
        17        18        11        19     9      180.000000       -3.154670         2
        17        18        11        19     9        0.000000        0.341030         3
        17        18        11        19     9      180.000000       -0.429377         4
        17        18        11        43     9        0.000000        3.791343         1
        17        18        11        43     9      180.000000        0.915306         2
        17        18        11        43     9        0.000000        0.458893         3
        17        18        11        43     9      180.000000        0.414023         4
        17        18        11        71     9        0.000000        3.791343         1
        17        18        11        71     9      180.000000        0.915306         2
        17        18        11        71     9        0.000000        0.458893         3
        17        18        11        71     9      180.000000        0.414023         4
        17        18        22        21     9        0.000000        0.958471         1
        17        18        22        21     9      180.000000        1.828225         2
        17        18        22        21     9        0.000000        0.287884         3
        17        18        22        21     9      180.000000       -0.116139         4
        17        18        22        54     9        0.000000       -0.152771         1
        17        18        22        54     9      180.000000       -0.126016         2
        17        18        22        54     9        0.000000        0.292799         3
        17        18        22        54     9      180.000000        0.022367         4
        17        18        22        55     9        0.000000       -0.152771         1
        17        18        22        55     9      180.000000       -0.126016         2
        17        18        22        55     9        0.000000        0.292799         3
        17        18        22        55     9      180.000000        0.022367         4
        18        11        19        20     9        0.000000       -0.856050         1
        18        11        19        20     9      180.000000       -3.154670         2
        18        11        19        20     9        0.000000        0.341030         3
        18        11        19        20     9      180.000000       -0.429377         4
        18        11        19        21     9        0.000000       -8.011946         1
        18        11        19        21     9      180.000000        8.433476         2
        18        11        19        21     9        0.000000        0.257643         3
        18        11        19        21     9      180.000000       -4.599935         4
        18        11        19        49     9        0.000000       -1.122176         1
        18        11        19        49     9      180.000000       -5.819555         2
        18        11        19        49     9        0.000000        0.140568         3
        18        11        19        49     9      180.000000        0.114692         4
        18        17         9        20     9        0.000000        3.153127         1
        18        17         9        20     9      180.000000       -3.348937         2
        18        17         9        20     9        0.000000        0.519549         3
        18        17         9        20     9      180.000000        0.090461         4
        18        22        21        19     9        0.000000       -0.441188         1
        18        22        21        19     9      180.000000        1.461405         2
        18        22        21        19     9        0.000000        0.090585         3
        18        22        21        19     9      180.000000       -1.237684         4
        18        22        21        52     9        0.000000       -0.040956         1
        18        22        21        52     9      180.000000       -0.134546         2
        18        22        21        52     9        0.000000        0.175830         3
        18        22        21        52     9      180.000000        0.068006         4
        18        22        21        53     9        0.000000       -0.040956         1
        18        22        21        53     9      180.000000       -0.134546         2
        18        22        21        53     9        0.000000        0.175830         3
        18        22        21        53     9      180.000000        0.068006         4
        19        11        18        22     9        0.000000       -8.011946         1
        19        11        18        22     9      180.000000        8.433476         2
        19        11        18        22     9        0.000000        0.257643         3
        19        11        18        22     9      180.000000       -4.599935         4
        19        11        18        48     9        0.000000       -1.122176         1
        19        11        18        48     9      180.000000       -5.819555         2
        19        11        18        48     9        0.000000        0.140568         3
        19        11        18        48     9      180.000000        0.114692         4
        19        21        22        54     9        0.000000       -0.040956         1
        19        21        22        54     9      180.000000       -0.134546         2
        19        21        22        54     9        0.000000        0.175830         3
        19        21        22        54     9      180.000000        0.068006         4
        19        21        22        55     9        0.000000       -0.040956         1
        19        21        22        55     9      180.000000       -0.134546         2
        19        21        22        55     9        0.000000        0.175830         3
        19        21        22        55     9      180.000000        0.068006         4
        20         9        17        46     9        0.000000       -0.428027         1
        20         9        17        46     9      180.000000        0.276117         2
        20         9        17        46     9        0.000000        0.876566         3
        20         9        17        46     9      180.000000       -0.010241         4
        20         9        17        47     9        0.000000       -0.428027         1
        20         9        17        47     9      180.000000        0.276117         2
        20         9        17        47     9        0.000000        0.876566         3
        20         9        17        47     9      180.000000       -0.010241         4
        20        19        11        43     9        0.000000        3.791343         1
        20        19        11        43     9      180.000000        0.915306         2
        20        19        11        43     9        0.000000        0.458893         3
        20        19        11        43     9      180.000000        0.414023         4
        20        19        11        71     9        0.000000        3.791343         1
        20        19        11        71     9      180.000000        0.915306         2
        20        19        11        71     9        0.000000        0.458893         3
        20        19        11        71     9      180.000000        0.414023         4
        20        19        21        22     9        0.000000        0.958471         1
        20        19        21        22     9      180.000000        1.828225         2
        20        19        21        22     9        0.000000        0.287884         3
        20        19        21        22     9      180.000000       -0.116139         4
        20        19        21        52     9        0.000000       -0.152771         1
        20        19        21        52     9      180.000000       -0.126016         2
        20        19        21        52     9        0.000000        0.292799         3
        20        19        21        52     9      180.000000        0.022367         4
        20        19        21        53     9        0.000000       -0.152771         1
        20        19        21        53     9      180.000000       -0.126016         2
        20        19        21        53     9        0.000000        0.292799         3
        20        19        21        53     9      180.000000        0.022367         4
        21        19        11        43     9        0.000000       -3.138482         1
        21        19        11        43     9      180.000000        2.167024         2
        21        19        11        43     9        0.000000        0.241529         3
        21        19        11        43     9      180.000000       -0.244107         4
        21        19        11        71     9        0.000000       -3.138482         1
        21        19        11        71     9      180.000000        2.167024         2
        21        19        11        71     9        0.000000        0.241529         3
        21        19        11        71     9      180.000000       -0.244107         4
        21        19        20        50     9        0.000000       -0.249238         1
        21        19        20        50     9      180.000000        0.008704         2
        21        19        20        50     9        0.000000        0.634047         3
        21        19        20        50     9      180.000000        0.041270         4
        21        19        20        51     9        0.000000       -0.249238         1
        21        19        20        51     9      180.000000        0.008704         2
        21        19        20        51     9        0.000000        0.634047         3
        21        19        20        51     9      180.000000        0.041270         4
        21        22        18        48     9        0.000000        0.718089         1
        21        22        18        48     9      180.000000        0.470471         2
        21        22        18        48     9        0.000000        0.272978         3
        21        22        18        48     9      180.000000        0.606890         4
        22        18        11        43     9        0.000000       -3.138482         1
        22        18        11        43     9      180.000000        2.167024         2
        22        18        11        43     9        0.000000        0.241529         3
        22        18        11        43     9      180.000000       -0.244107         4
        22        18        11        71     9        0.000000       -3.138482         1
        22        18        11        71     9      180.000000        2.167024         2
        22        18        11        71     9        0.000000        0.241529         3
        22        18        11        71     9      180.000000       -0.244107         4
        22        18        17        46     9        0.000000       -0.249238         1
        22        18        17        46     9      180.000000        0.008704         2
        22        18        17        46     9        0.000000        0.634047         3
        22        18        17        46     9      180.000000        0.041270         4
        22        18        17        47     9        0.000000       -0.249238         1
        22        18        17        47     9      180.000000        0.008704         2
        22        18        17        47     9        0.000000        0.634047         3
        22        18        17        47     9      180.000000        0.041270         4
        22        21        19        49     9        0.000000        0.718089         1
        22        21        19        49     9      180.000000        0.470471         2
        22        21        19        49     9        0.000000        0.272978         3
        22        21        19        49     9      180.000000        0.606890         4
        23        15        27        26     9        0.000000        0.650025         1
        23        15        27        26     9      180.000000        8.600039         2
        23        15        27        26     9        0.000000       -0.907603         3
        23        15        27        26     9      180.000000       -0.292245         4
        23        15        27        31     9        0.000000        0.251014         1
        23        15        27        31     9      180.000000        5.196290         2
        23        15        27        31     9        0.000000       -0.132594         3
        23        15        27        31     9      180.000000       -0.146426         4
        23        24        25        26     9        0.000000       -0.072085         1
        23        24        25        26     9      180.000000       20.157797         2
        23        24        25        26     9        0.000000       -1.570501         3
        23        24        25        26     9      180.000000       -0.529394         4
        23        24        25        57     9        0.000000        0.072750         1
        23        24        25        57     9      180.000000       16.479059         2
        23        24        25        57     9        0.000000       -0.468654         3
        23        24        25        57     9      180.000000       -0.077831         4
        24        23        15        27     9        0.000000       -0.164613         1
        24        23        15        27     9      180.000000       22.563501         2
        24        23        15        27     9        0.000000       -1.473738         3
        24        23        15        27     9      180.000000       -0.607307         4
        24        25        26        27     9        0.000000       -0.029372         1
        24        25        26        27     9      180.000000       16.997831         2
        24        25        26        27     9        0.000000       -1.066451         3
        24        25        26        27     9      180.000000       -0.324188         4
        24        25        26        28     9        0.000000       -0.279002         1
        24        25        26        28     9      180.000000       14.014157         2
        24        25        26        28     9        0.000000       -0.665266         3
        24        25        26        28     9      180.000000       -0.201471         4
        25        24        23        56     9        0.000000       -0.022263         1
        25        24        23        56     9      180.000000       14.013427         2
        25        24        23        56     9        0.000000       -0.798017         3
        25        24        23        56     9      180.000000        0.054446         4
        25        26        27        31     9        0.000000        0.052636         1
        25        26        27        31     9      180.000000        9.894095         2
        25        26        27        31     9        0.000000       -0.362441         3
        25        26        27        31     9      180.000000       -0.202702         4
        25        26        28        29     9        0.000000       -0.233218         1
        25        26        28        29     9      180.000000       14.142494         2
        25        26        28        29     9        0.000000       -0.674438         3
        25        26        28        29     9      180.000000       -0.246437         4
        25        26        28        58     9        0.000000       -0.079270         1
        25        26        28        58     9      180.000000       11.607451         2
        25        26        28        58     9        0.000000       -0.540513         3
        25        26        28        58     9      180.000000        0.000628         4
        26        25        24        41     9        0.000000        0.020381         1
        26        25        24        41     9      180.000000       15.555641         2
        26        25        24        41     9        0.000000       -0.659886         3
        26        25        24        41     9      180.000000        0.023643         4
        26        27        31        30     9        0.000000        0.538547         1
        26        27        31        30     9      180.000000       11.070125         2
        26        27        31        30     9        0.000000       -0.703497         3
        26        27        31        30     9      180.000000       -0.492706         4
        26        27        31        39     9        0.000000        0.604558         1
        26        27        31        39     9      180.000000       10.634974         2
        26        27        31        39     9        0.000000        0.286421         3
        26        27        31        39     9      180.000000       -0.714249         4
        26        28        29        30     9        0.000000       -0.106480         1
        26        28        29        30     9      180.000000       20.772312         2
        26        28        29        30     9        0.000000       -1.496615         3
        26        28        29        30     9      180.000000       -0.591139         4
        26        28        29        59     9        0.000000        0.000065         1
        26        28        29        59     9      180.000000       15.655804         2
        26        28        29        59     9        0.000000       -0.681400         3
        26        28        29        59     9      180.000000       -0.023899         4
        27        15        23        56     9        0.000000        0.088394         1
        27        15        23        56     9      180.000000       17.764487         2
        27        15        23        56     9        0.000000       -0.607975         3
        27        15        23        56     9      180.000000       -0.051665         4
        27        26        25        57     9        0.000000        0.129623         1
        27        26        25        57     9      180.000000       13.146726         2
        27        26        25        57     9        0.000000       -0.171951         3
        27        26        25        57     9      180.000000       -0.160388         4
        27        26        28        29     9        0.000000       -0.010098         1
        27        26        28        29     9      180.000000       17.137212         2
        27        26        28        29     9        0.000000       -1.065282         3
        27        26        28        29     9      180.000000       -0.359853         4
        27        26        28        58     9        0.000000        0.134583         1
        27        26        28        58     9      180.000000       13.175917         2
        27        26        28        58     9        0.000000       -0.176389         3
        27        26        28        58     9      180.000000       -0.155610         4
        27        31        30        29     9        0.000000        0.207986         1
        27        31        30        29     9      180.000000       20.457878         2
        27        31        30        29     9        0.000000       -1.086264         3
        27        31        30        29     9      180.000000       -0.611639         4
        27        31        30        73     9        0.000000       -0.074745         1
        27        31        30        73     9      180.000000       15.319840         2
        27        31        30        73     9        0.000000       -0.502084         3
        27        31        30        73     9      180.000000       -0.108621         4
        28        26        25        57     9        0.000000       -0.075387         1
        28        26        25        57     9      180.000000       11.477072         2
        28        26        25        57     9        0.000000       -0.543670         3
        28        26        25        57     9      180.000000        0.019804         4
        28        26        27        31     9        0.000000        0.046589         1
        28        26        27        31     9      180.000000        9.929921         2
        28        26        27        31     9        0.000000       -0.352955         3
        28        26        27        31     9      180.000000       -0.194639         4
        28        29        30        31     9        0.000000       -0.052472         1
        28        29        30        31     9      180.000000       15.929456         2
        28        29        30        31     9        0.000000       -1.513048         3
        28        29        30        31     9      180.000000       -0.263345         4
        28        29        30        73     9        0.000000       -0.025516         1
        28        29        30        73     9      180.000000       13.067018         2
        28        29        30        73     9        0.000000       -0.737753         3
        28        29        30        73     9      180.000000        0.119593         4
        29        30        31        39     9        0.000000        0.124786         1
        29        30        31        39     9      180.000000       23.535293         2
        29        30        31        39     9        0.000000        0.385567         3
        29        30        31        39     9      180.000000       -1.194974         4
        30        29        28        58     9        0.000000        0.059417         1
        30        29        28        58     9      180.000000       16.468704         2
        30        29        28        58     9        0.000000       -0.522034         3
        30        29        28        58     9      180.000000       -0.026165         4
        31        30        29        59     9        0.000000        0.062895         1
        31        30        29        59     9      180.000000       12.910021         2
        31        30        29        59     9        0.000000       -0.676147         3
        31        30        29        59     9      180.000000        0.056779         4
        32        13        35        34     9        0.000000       -2.505926         1
        32        13        35        34     9      180.000000        5.730409         2
        32        13        35        34     9        0.000000        0.010629         3
        32        13        35        34     9      180.000000       -2.521233         4
        32        13        35        63     9        0.000000        0.121320         1
        32        13        35        63     9      180.000000       -0.537837         2
        32        13        35        63     9        0.000000        0.244378         3
        32        13        35        63     9      180.000000        0.033216         4
        32        13        35        64     9        0.000000        0.121320         1
        32        13        35        64     9      180.000000       -0.537837         2
        32        13        35        64     9        0.000000        0.244378         3
        32        13        35        64     9      180.000000        0.033216         4
        32        13        36        37     9        0.000000       -2.505926         1
        32        13        36        37     9      180.000000        5.730409         2
        32        13        36        37     9        0.000000        0.010629         3
        32        13        36        37     9      180.000000       -2.521233         4
        32        13        36        65     9        0.000000        0.121320         1
        32        13        36        65     9      180.000000       -0.537837         2
        32        13        36        65     9        0.000000        0.244378         3
        32        13        36        65     9      180.000000        0.033216         4
        32        13        36        66     9        0.000000        0.121320         1
        32        13        36        66     9      180.000000       -0.537837         2
        32        13        36        66     9        0.000000        0.244378         3
        32        13        36        66     9      180.000000        0.033216         4
        32        33        34        35     9        0.000000       -0.065318         1
        32        33        34        35     9      180.000000        5.356988         2
        32        33        34        35     9        0.000000       -0.282881         3
        32        33        34        35     9      180.000000       -1.803766         4
        32        33        34        62     9        0.000000       -0.070146         1
        32        33        34        62     9      180.000000       -0.036286         2
        32        33        34        62     9        0.000000        0.034615         3
        32        33        34        62     9      180.000000        0.129289         4
        32        33        34        72     9        0.000000       -0.070146         1
        32        33        34        72     9      180.000000       -0.036286         2
        32        33        34        72     9        0.000000        0.034615         3
        32        33        34        72     9      180.000000        0.129289         4
        32        38        37        36     9        0.000000       -0.065318         1
        32        38        37        36     9      180.000000        5.356988         2
        32        38        37        36     9        0.000000       -0.282881         3
        32        38        37        36     9      180.000000       -1.803766         4
        32        38        37        67     9        0.000000       -0.070146         1
        32        38        37        67     9      180.000000       -0.036286         2
        32        38        37        67     9        0.000000        0.034615         3
        32        38        37        67     9      180.000000        0.129289         4
        32        38        37        68     9        0.000000       -0.070146         1
        32        38        37        68     9      180.000000       -0.036286         2
        32        38        37        68     9        0.000000        0.034615         3
        32        38        37        68     9      180.000000        0.129289         4
        33        32        13        35     9        0.000000       -2.639193         1
        33        32        13        35     9      180.000000        0.816982         2
        33        32        13        35     9        0.000000        0.097337         3
        33        32        13        35     9      180.000000       -0.511212         4
        33        32        13        36     9        0.000000       -2.639193         1
        33        32        13        36     9      180.000000        0.816982         2
        33        32        13        36     9        0.000000        0.097337         3
        33        32        13        36     9      180.000000       -0.511212         4
        33        32        13        74     9        0.000000       -4.284947         1
        33        32        13        74     9      180.000000        0.570352         2
        33        32        13        74     9        0.000000        0.434785         3
        33        32        13        74     9      180.000000        0.979642         4
        33        32        16        44     9        0.000000       -0.029160         1
        33        32        16        44     9      180.000000        0.182539         2
        33        32        16        44     9        0.000000        0.689288         3
        33        32        16        44     9      180.000000        0.065183         4
        33        32        16        45     9        0.000000       -0.029160         1
        33        32        16        45     9      180.000000        0.182539         2
        33        32        16        45     9        0.000000        0.689288         3
        33        32        16        45     9      180.000000        0.065183         4
        33        32        38        37     9        0.000000       -0.691528         1
        33        32        38        37     9      180.000000        1.082660         2
        33        32        38        37     9        0.000000        0.185942         3
        33        32        38        37     9      180.000000       -0.030392         4
        33        32        38        69     9        0.000000       -0.010082         1
        33        32        38        69     9      180.000000        0.031989         2
        33        32        38        69     9        0.000000        0.325134         3
        33        32        38        69     9      180.000000        0.001771         4
        33        32        38        70     9        0.000000       -0.010082         1
        33        32        38        70     9      180.000000        0.031989         2
        33        32        38        70     9        0.000000        0.325134         3
        33        32        38        70     9      180.000000        0.001771         4
        33        34        35        63     9        0.000000       -0.030628         1
        33        34        35        63     9      180.000000       -0.109878         2
        33        34        35        63     9        0.000000        0.184417         3
        33        34        35        63     9      180.000000        0.021087         4
        33        34        35        64     9        0.000000       -0.030628         1
        33        34        35        64     9      180.000000       -0.109878         2
        33        34        35        64     9        0.000000        0.184417         3
        33        34        35        64     9      180.000000        0.021087         4
        34        33        32        38     9        0.000000       -0.691528         1
        34        33        32        38     9      180.000000        1.082660         2
        34        33        32        38     9        0.000000        0.185942         3
        34        33        32        38     9      180.000000       -0.030392         4
        34        35        13        36     9        0.000000       -0.180928         1
        34        35        13        36     9      180.000000        0.624288         2
        34        35        13        36     9        0.000000        0.337495         3
        34        35        13        36     9      180.000000       -0.366044         4
        34        35        13        74     9        0.000000       -6.905881         1
        34        35        13        74     9      180.000000        1.177335         2
        34        35        13        74     9        0.000000        0.524464         3
        34        35        13        74     9      180.000000        0.375498         4
        35        13        32        38     9        0.000000       -2.639193         1
        35        13        32        38     9      180.000000        0.816982         2
        35        13        32        38     9        0.000000        0.097337         3
        35        13        32        38     9      180.000000       -0.511212         4
        35        13        36        37     9        0.000000       -0.180928         1
        35        13        36        37     9      180.000000        0.624288         2
        35        13        36        37     9        0.000000        0.337495         3
        35        13        36        37     9      180.000000       -0.366044         4
        35        13        36        65     9        0.000000        0.269925         1
        35        13        36        65     9      180.000000       -0.151722         2
        35        13        36        65     9        0.000000        0.448345         3
        35        13        36        65     9      180.000000       -0.076243         4
        35        13        36        66     9        0.000000        0.269925         1
        35        13        36        66     9      180.000000       -0.151722         2
        35        13        36        66     9        0.000000        0.448345         3
        35        13        36        66     9      180.000000       -0.076243         4
        35        34        33        60     9        0.000000       -0.007730         1
        35        34        33        60     9      180.000000       -0.031003         2
        35        34        33        60     9        0.000000        0.085422         3
        35        34        33        60     9      180.000000        0.069835         4
        35        34        33        61     9        0.000000       -0.007730         1
        35        34        33        61     9      180.000000       -0.031003         2
        35        34        33        61     9        0.000000        0.085422         3
        35        34        33        61     9      180.000000        0.069835         4
        36        13        32        38     9        0.000000       -2.639193         1
        36        13        32        38     9      180.000000        0.816982         2
        36        13        32        38     9        0.000000        0.097337         3
        36        13        32        38     9      180.000000       -0.511212         4
        36        13        35        63     9        0.000000        0.269925         1
        36        13        35        63     9      180.000000       -0.151722         2
        36        13        35        63     9        0.000000        0.448345         3
        36        13        35        63     9      180.000000       -0.076243         4
        36        13        35        64     9        0.000000        0.269925         1
        36        13        35        64     9      180.000000       -0.151722         2
        36        13        35        64     9        0.000000        0.448345         3
        36        13        35        64     9      180.000000       -0.076243         4
        36        37        38        69     9        0.000000       -0.007730         1
        36        37        38        69     9      180.000000       -0.031003         2
        36        37        38        69     9        0.000000        0.085422         3
        36        37        38        69     9      180.000000        0.069835         4
        36        37        38        70     9        0.000000       -0.007730         1
        36        37        38        70     9      180.000000       -0.031003         2
        36        37        38        70     9        0.000000        0.085422         3
        36        37        38        70     9      180.000000        0.069835         4
        37        36        13        74     9        0.000000       -6.905881         1
        37        36        13        74     9      180.000000        1.177335         2
        37        36        13        74     9        0.000000        0.524464         3
        37        36        13        74     9      180.000000        0.375498         4
        38        32        13        74     9        0.000000       -4.284947         1
        38        32        13        74     9      180.000000        0.570352         2
        38        32        13        74     9        0.000000        0.434785         3
        38        32        13        74     9      180.000000        0.979642         4
        38        32        16        44     9        0.000000       -0.029160         1
        38        32        16        44     9      180.000000        0.182539         2
        38        32        16        44     9        0.000000        0.689288         3
        38        32        16        44     9      180.000000        0.065183         4
        38        32        16        45     9        0.000000       -0.029160         1
        38        32        16        45     9      180.000000        0.182539         2
        38        32        16        45     9        0.000000        0.689288         3
        38        32        16        45     9      180.000000        0.065183         4
        38        32        33        60     9        0.000000       -0.010082         1
        38        32        33        60     9      180.000000        0.031989         2
        38        32        33        60     9        0.000000        0.325134         3
        38        32        33        60     9      180.000000        0.001771         4
        38        32        33        61     9        0.000000       -0.010082         1
        38        32        33        61     9      180.000000        0.031989         2
        38        32        33        61     9        0.000000        0.325134         3
        38        32        33        61     9      180.000000        0.001771         4
        38        37        36        65     9        0.000000       -0.030628         1
        38        37        36        65     9      180.000000       -0.109878         2
        38        37        36        65     9        0.000000        0.184417         3
        38        37        36        65     9      180.000000        0.021087         4
        38        37        36        66     9        0.000000       -0.030628         1
        38        37        36        66     9      180.000000       -0.109878         2
        38        37        36        66     9        0.000000        0.184417         3
        38        37        36        66     9      180.000000        0.021087         4
        39        31        30        73     9        0.000000       -0.168655         1
        39        31        30        73     9      180.000000       16.436737         2
        39        31        30        73     9        0.000000       -0.006293         3
        39        31        30        73     9      180.000000       -0.040946         4
        41        24        23        56     9        0.000000       -0.205233         1
        41        24        23        56     9      180.000000       11.446277         2
        41        24        23        56     9        0.000000       -0.782973         3
        41        24        23        56     9      180.000000        0.209926         4
        41        24        25        57     9        0.000000       -0.132766         1
        41        24        25        57     9      180.000000       12.496672         2
        41        24        25        57     9        0.000000       -0.594343         3
        41        24        25        57     9      180.000000        0.320491         4
        43        11        18        48     9        0.000000       -0.497211         1
        43        11        18        48     9      180.000000        2.354124         2
        43        11        18        48     9        0.000000        0.397744         3
        43        11        18        48     9      180.000000        0.067520         4
        43        11        19        49     9        0.000000       -0.497211         1
        43        11        19        49     9      180.000000        2.354124         2
        43        11        19        49     9        0.000000        0.397744         3
        43        11        19        49     9      180.000000        0.067520         4
        46        17        18        48     9        0.000000        0.154148         1
        46        17        18        48     9      180.000000        0.583964         2
        46        17        18        48     9        0.000000        0.589180         3
        46        17        18        48     9      180.000000       -0.059466         4
        47        17        18        48     9        0.000000        0.154148         1
        47        17        18        48     9      180.000000        0.583964         2
        47        17        18        48     9        0.000000        0.589180         3
        47        17        18        48     9      180.000000       -0.059466         4
        48        18        11        71     9        0.000000       -0.497211         1
        48        18        11        71     9      180.000000        2.354124         2
        48        18        11        71     9        0.000000        0.397744         3
        48        18        11        71     9      180.000000        0.067520         4
        48        18        22        54     9        0.000000       -0.104800         1
        48        18        22        54     9      180.000000        0.054432         2
        48        18        22        54     9        0.000000        0.500456         3
        48        18        22        54     9      180.000000       -0.079027         4
        48        18        22        55     9        0.000000       -0.104800         1
        48        18        22        55     9      180.000000        0.054432         2
        48        18        22        55     9        0.000000        0.500456         3
        48        18        22        55     9      180.000000       -0.079027         4
        49        19        11        71     9        0.000000       -0.497211         1
        49        19        11        71     9      180.000000        2.354124         2
        49        19        11        71     9        0.000000        0.397744         3
        49        19        11        71     9      180.000000        0.067520         4
        49        19        20        50     9        0.000000        0.154148         1
        49        19        20        50     9      180.000000        0.583964         2
        49        19        20        50     9        0.000000        0.589180         3
        49        19        20        50     9      180.000000       -0.059466         4
        49        19        20        51     9        0.000000        0.154148         1
        49        19        20        51     9      180.000000        0.583964         2
        49        19        20        51     9        0.000000        0.589180         3
        49        19        20        51     9      180.000000       -0.059466         4
        49        19        21        52     9        0.000000       -0.104800         1
        49        19        21        52     9      180.000000        0.054432         2
        49        19        21        52     9        0.000000        0.500456         3
        49        19        21        52     9      180.000000       -0.079027         4
        49        19        21        53     9        0.000000       -0.104800         1
        49        19        21        53     9      180.000000        0.054432         2
        49        19        21        53     9        0.000000        0.500456         3
        49        19        21        53     9      180.000000       -0.079027         4
        52        21        22        54     9        0.000000        0.035024         1
        52        21        22        54     9      180.000000        0.050947         2
        52        21        22        54     9        0.000000        0.415366         3
        52        21        22        54     9      180.000000       -0.045840         4
        52        21        22        55     9        0.000000        0.035024         1
        52        21        22        55     9      180.000000        0.050947         2
        52        21        22        55     9        0.000000        0.415366         3
        52        21        22        55     9      180.000000       -0.045840         4
        53        21        22        54     9        0.000000        0.035024         1
        53        21        22        54     9      180.000000        0.050947         2
        53        21        22        54     9        0.000000        0.415366         3
        53        21        22        54     9      180.000000       -0.045840         4
        53        21        22        55     9        0.000000        0.035024         1
        53        21        22        55     9      180.000000        0.050947         2
        53        21        22        55     9        0.000000        0.415366         3
        53        21        22        55     9      180.000000       -0.045840         4
        58        28        29        59     9        0.000000       -0.138670         1
        58        28        29        59     9      180.000000       12.729537         2
        58        28        29        59     9        0.000000       -0.650212         3
        58        28        29        59     9      180.000000        0.305447         4
        59        29        30        73     9        0.000000       -0.257991         1
        59        29        30        73     9      180.000000       11.031163         2
        59        29        30        73     9        0.000000       -0.652563         3
        59        29        30        73     9      180.000000        0.132805         4
        60        33        34        62     9        0.000000        0.031974         1
        60        33        34        62     9      180.000000        0.055613         2
        60        33        34        62     9        0.000000        0.315735         3
        60        33        34        62     9      180.000000       -0.004742         4
        60        33        34        72     9        0.000000        0.031974         1
        60        33        34        72     9      180.000000        0.055613         2
        60        33        34        72     9        0.000000        0.315735         3
        60        33        34        72     9      180.000000       -0.004742         4
        61        33        34        62     9        0.000000        0.031974         1
        61        33        34        62     9      180.000000        0.055613         2
        61        33        34        62     9        0.000000        0.315735         3
        61        33        34        62     9      180.000000       -0.004742         4
        61        33        34        72     9        0.000000        0.031974         1
        61        33        34        72     9      180.000000        0.055613         2
        61        33        34        72     9        0.000000        0.315735         3
        61        33        34        72     9      180.000000       -0.004742         4
        62        34        35        63     9        0.000000        0.014435         1
        62        34        35        63     9      180.000000        0.029377         2
        62        34        35        63     9        0.000000        0.324469         3
        62        34        35        63     9      180.000000       -0.017225         4
        62        34        35        64     9        0.000000        0.014435         1
        62        34        35        64     9      180.000000        0.029377         2
        62        34        35        64     9        0.000000        0.324469         3
        62        34        35        64     9      180.000000       -0.017225         4
        63        35        13        74     9        0.000000        0.385010         1
        63        35        13        74     9      180.000000       -0.760222         2
        63        35        13        74     9        0.000000        0.800449         3
        63        35        13        74     9      180.000000       -0.092976         4
        63        35        34        72     9        0.000000        0.014435         1
        63        35        34        72     9      180.000000        0.029377         2
        63        35        34        72     9        0.000000        0.324469         3
        63        35        34        72     9      180.000000       -0.017225         4
        64        35        13        74     9        0.000000        0.385010         1
        64        35        13        74     9      180.000000       -0.760222         2
        64        35        13        74     9        0.000000        0.800449         3
        64        35        13        74     9      180.000000       -0.092976         4
        64        35        34        72     9        0.000000        0.014435         1
        64        35        34        72     9      180.000000        0.029377         2
        64        35        34        72     9        0.000000        0.324469         3
        64        35        34        72     9      180.000000       -0.017225         4
        65        36        13        74     9        0.000000        0.385010         1
        65        36        13        74     9      180.000000       -0.760222         2
        65        36        13        74     9        0.000000        0.800449         3
        65        36        13        74     9      180.000000       -0.092976         4
        65        36        37        67     9        0.000000        0.014435         1
        65        36        37        67     9      180.000000        0.029377         2
        65        36        37        67     9        0.000000        0.324469         3
        65        36        37        67     9      180.000000       -0.017225         4
        65        36        37        68     9        0.000000        0.014435         1
        65        36        37        68     9      180.000000        0.029377         2
        65        36        37        68     9        0.000000        0.324469         3
        65        36        37        68     9      180.000000       -0.017225         4
        66        36        13        74     9        0.000000        0.385010         1
        66        36        13        74     9      180.000000       -0.760222         2
        66        36        13        74     9        0.000000        0.800449         3
        66        36        13        74     9      180.000000       -0.092976         4
        66        36        37        67     9        0.000000        0.014435         1
        66        36        37        67     9      180.000000        0.029377         2
        66        36        37        67     9        0.000000        0.324469         3
        66        36        37        67     9      180.000000       -0.017225         4
        66        36        37        68     9        0.000000        0.014435         1
        66        36        37        68     9      180.000000        0.029377         2
        66        36        37        68     9        0.000000        0.324469         3
        66        36        37        68     9      180.000000       -0.017225         4
        67        37        38        69     9        0.000000        0.031974         1
        67        37        38        69     9      180.000000        0.055613         2
        67        37        38        69     9        0.000000        0.315735         3
        67        37        38        69     9      180.000000       -0.004742         4
        67        37        38        70     9        0.000000        0.031974         1
        67        37        38        70     9      180.000000        0.055613         2
        67        37        38        70     9        0.000000        0.315735         3
        67        37        38        70     9      180.000000       -0.004742         4
        68        37        38        69     9        0.000000        0.031974         1
        68        37        38        69     9      180.000000        0.055613         2
        68        37        38        69     9        0.000000        0.315735         3
        68        37        38        69     9      180.000000       -0.004742         4
        68        37        38        70     9        0.000000        0.031974         1
        68        37        38        70     9      180.000000        0.055613         2
        68        37        38        70     9        0.000000        0.315735         3
        68        37        38        70     9      180.000000       -0.004742         4

[ dihedrals ] ; impropers
;       ai        aj        ak        al funct           phase               k        pn
         6         2         3         5     4      180.000000       27.575771         2
         6         3         5         2     4      180.000000       27.575771         2
         6         5         2         3     4      180.000000       27.575771         2
         8         1         5         9     4      180.000000        8.565568         2
         8         5         9         1     4      180.000000        8.565568         2
         8         9         1         5     4      180.000000        8.565568         2
        10         1         7        42     4      180.000000        1.918377         2
        10         7        42         1     4      180.000000        1.918377         2
        10        42         1         7     4      180.000000        1.918377         2

[ pairs ]
;       ai        aj funct
         1         6     1
         1        12     1
         1        17     1
         1        20     1
         1        40     1
         2         8     1
         2        10     1
         2        12     1
         2        16     1
         2        40     1
         3         4     1
         3         8     1
         3        13     1
         3        33     1
         3        38     1
         4         5     1
         4         7     1
         4         9     1
         4        15     1
         4        42     1
         5        10     1
         5        16     1
         5        17     1
         5        20     1
         6         9     1
         6        14     1
         6        32     1
         6        44     1
         6        45     1
         7         8     1
         7        23     1
         7        27     1
         7        40     1
         8        14     1
         8        18     1
         8        19     1
         8        42     1
         8        46     1
         8        47     1
         8        50     1
         8        51     1
         9        10     1
         9        11     1
         9        21     1
         9        22     1
         9        48     1
         9        49     1
        10        14     1
        10        15     1
        11        46     1
        11        47     1
        11        50     1
        11        51     1
        11        52     1
        11        53     1
        11        54     1
        11        55     1
        12        24     1
        12        26     1
        12        31     1
        12        42     1
        12        56     1
        13        44     1
        13        45     1
        13        60     1
        13        61     1
        13        62     1
        13        67     1
        13        68     1
        13        69     1
        13        70     1
        13        72     1
        14        23     1
        14        27     1
        15        25     1
        15        28     1
        15        30     1
        15        39     1
        15        40     1
        15        41     1
        16        34     1
        16        35     1
        16        36     1
        16        37     1
        16        60     1
        16        61     1
        16        69     1
        16        70     1
        16        74     1
        17        19     1
        17        21     1
        17        43     1
        17        50     1
        17        51     1
        17        54     1
        17        55     1
        17        71     1
        18        20     1
        18        49     1
        18        52     1
        18        53     1
        19        48     1
        19        54     1
        19        55     1
        20        22     1
        20        43     1
        20        46     1
        20        47     1
        20        52     1
        20        53     1
        20        71     1
        21        43     1
        21        48     1
        21        50     1
        21        51     1
        21        71     1
        22        43     1
        22        46     1
        22        47     1
        22        49     1
        22        71     1
        23        26     1
        23        31     1
        23        57     1
        24        27     1
        24        28     1
        25        29     1
        25        31     1
        25        56     1
        25        58     1
        26        30     1
        26        39     1
        26        41     1
        26        59     1
        27        29     1
        27        56     1
        27        57     1
        27        58     1
        27        73     1
        28        31     1
        28        57     1
        28        73     1
        29        39     1
        30        58     1
        31        59     1
        32        62     1
        32        63     1
        32        64     1
        32        65     1
        32        66     1
        32        67     1
        32        68     1
        32        72     1
        33        36     1
        33        37     1
        33        44     1
        33        45     1
        33        63     1
        33        64     1
        33        69     1
        33        70     1
        33        74     1
        34        36     1
        34        38     1
        34        74     1
        35        37     1
        35        38     1
        35        60     1
        35        61     1
        35        65     1
        35        66     1
        36        63     1
        36        64     1
        36        69     1
        36        70     1
        37        74     1
        38        44     1
        38        45     1
        38        60     1
        38        61     1
        38        65     1
        38        66     1
        38        74     1
        39        73     1
        41        56     1
        41        57     1
        43        48     1
        43        49     1
        46        48     1
        47        48     1
        48        54     1
        48        55     1
        48        71     1
        49        50     1
        49        51     1
        49        52     1
        49        53     1
        49        71     1
        52        54     1
        52        55     1
        53        54     1
        53        55     1
        58        59     1
        59        73     1
        60        62     1
        60        72     1
        61        62     1
        61        72     1
        62        63     1
        62        64     1
        63        72     1
        63        74     1
        64        72     1
        64        74     1
        65        67     1
        65        68     1
        65        74     1
        66        67     1
        66        68     1
        66        74     1
        67        69     1
        67        70     1
        68        69     1
        68        70     1
