; ITP file created by ByteFF-ML, 2026-01-07 07:30:58.588182

[ atomtypes ]
;name           bonded.type        at.num        mass        charge   ptype           sigma         epsilon
 c0bf                                   6      0.0000       0.00000       A     3.31643e-01     4.14234e-01
 n1bf                                   7      0.0000       0.00000       A     3.38596e-01     3.95749e-01
 o2bf                                   8      0.0000       0.00000       A     3.15992e-01     3.04359e-01
 c3bf                                   6      0.0000       0.00000       A     3.31246e-01     4.16317e-01
 n4bf                                   7      0.0000       0.00000       A     3.38248e-01     3.92705e-01
 o5bf                                   8      0.0000       0.00000       A     3.24416e-01     3.93369e-01
 c6bf                                   6      0.0000       0.00000       A     3.31549e-01     4.13122e-01
 n7bf                                   7      0.0000       0.00000       A     3.38654e-01     3.91454e-01
 c8bf                                   6      0.0000       0.00000       A     3.31345e-01     4.09248e-01
 n9bf                                   7      0.0000       0.00000       A     3.18923e-01     8.93580e-01
 c10bf                                  6      0.0000       0.00000       A     3.31425e-01     4.12209e-01
 n11bf                                  7      0.0000       0.00000       A     2.68098e-01     7.07337e+00
 c12bf                                  6      0.0000       0.00000       A     3.31401e-01     4.10416e-01
 c13bf                                  6      0.0000       0.00000       A     3.31479e-01     4.13996e-01
 c14bf                                  6      0.0000       0.00000       A     3.31066e-01     4.11577e-01
 c15bf                                  6      0.0000       0.00000       A     3.39767e-01     4.48736e-01
 c16bf                                  6      0.0000       0.00000       A     3.39089e-01     4.49819e-01
 c17bf                                  6      0.0000       0.00000       A     3.39791e-01     4.48492e-01
 c18bf                                  6      0.0000       0.00000       A     3.39791e-01     4.48492e-01
 c19bf                                  6      0.0000       0.00000       A     3.39089e-01     4.49819e-01
 c20bf                                  6      0.0000       0.00000       A     3.40042e-01     4.52313e-01
 c21bf                                  6      0.0000       0.00000       A     3.40042e-01     4.52313e-01
 c22bf                                  6      0.0000       0.00000       A     3.31470e-01     4.13554e-01
 c23bf                                  6      0.0000       0.00000       A     3.31492e-01     4.12833e-01
 c24bf                                  6      0.0000       0.00000       A     3.31440e-01     4.12271e-01
 c25bf                                  6      0.0000       0.00000       A     3.31514e-01     4.13462e-01
 c26bf                                  6      0.0000       0.00000       A     3.31350e-01     4.13910e-01
 c27bf                                  6      0.0000       0.00000       A     3.31506e-01     4.13486e-01
 c28bf                                  6      0.0000       0.00000       A     3.31524e-01     4.13114e-01
 c29bf                                  6      0.0000       0.00000       A     3.31480e-01     4.12726e-01
 c30bf                                  6      0.0000       0.00000       A     3.31501e-01     4.13652e-01
 f31bf                                  9      0.0000       0.00000       A     3.03457e-01     3.49753e-01
 h32bf                                  1      0.0000       0.00000       A     5.35889e-02     2.00833e-02
 h33bf                                  1      0.0000       0.00000       A     2.53621e-01     6.72663e-02
 h34bf                                  1      0.0000       0.00000       A     1.10411e-01     4.09392e-02
 h35bf                                  1      0.0000       0.00000       A     2.42062e-01     8.70480e-02
 h36bf                                  1      0.0000       0.00000       A     2.42062e-01     8.70480e-02
 h37bf                                  1      0.0000       0.00000       A     2.41770e-01     8.68852e-02
 h38bf                                  1      0.0000       0.00000       A     2.41770e-01     8.68852e-02
 h39bf                                  1      0.0000       0.00000       A     1.89725e-01     8.84605e-02
 h40bf                                  1      0.0000       0.00000       A     1.89725e-01     8.84605e-02
 h41bf                                  1      0.0000       0.00000       A     2.41770e-01     8.68852e-02
 h42bf                                  1      0.0000       0.00000       A     2.41770e-01     8.68852e-02
 h43bf                                  1      0.0000       0.00000       A     2.60102e-01     8.79977e-02
 h44bf                                  1      0.0000       0.00000       A     2.60102e-01     8.79977e-02
 h45bf                                  1      0.0000       0.00000       A     2.60102e-01     8.79977e-02
 h46bf                                  1      0.0000       0.00000       A     2.60102e-01     8.79977e-02
 h47bf                                  1      0.0000       0.00000       A     2.62409e-01     6.77755e-02
 h48bf                                  1      0.0000       0.00000       A     2.62420e-01     6.75888e-02
 h49bf                                  1      0.0000       0.00000       A     2.62512e-01     6.75552e-02
 h50bf                                  1      0.0000       0.00000       A     2.62489e-01     6.75504e-02
 h51bf                                  1      0.0000       0.00000       A     2.62431e-01     6.76127e-02
 h52bf                                  1      0.0000       0.00000       A     1.10411e-01     4.09392e-02
 h53bf                                  1      0.0000       0.00000       A     2.62489e-01     6.75504e-02
 h54bf                                  1      0.0000       0.00000       A     2.42062e-01     8.70480e-02

[ moleculetype ]
;name             nrexcl
 MRTX_105_7RPZ         3

[ atoms ]
;       nr            type      resi   res      atom      cgnr      charge          mass ; qtot
         1            c0bf         1   UNL        c0         1    -0.21159       12.0110 ; qtot   -0.212
         2            n1bf         1   UNL        n1         2    -0.22536       14.0070 ; qtot   -0.437
         3            o2bf         1   UNL        o2         3    -0.43150       15.9990 ; qtot   -0.868
         4            c3bf         1   UNL        c3         4     0.08970       12.0110 ; qtot   -0.779
         5            n4bf         1   UNL        n4         5    -0.30633       14.0070 ; qtot   -1.085
         6            o5bf         1   UNL        o5         6    -0.53487       15.9990 ; qtot   -1.620
         7            c6bf         1   UNL        c6         7     0.39201       12.0110 ; qtot   -1.228
         8            n7bf         1   UNL        n7         8    -0.65201       14.0070 ; qtot   -1.880
         9            c8bf         1   UNL        c8         9     0.42144       12.0110 ; qtot   -1.459
        10            n9bf         1   UNL        n9        10    -0.75767       14.0070 ; qtot   -2.216
        11           c10bf         1   UNL       c10        11     0.39442       12.0110 ; qtot   -1.822
        12           n11bf         1   UNL       n11        12    -0.84599       14.0070 ; qtot   -2.668
        13           c12bf         1   UNL       c12        13     0.38978       12.0110 ; qtot   -2.278
        14           c13bf         1   UNL       c13        14     0.12726       12.0110 ; qtot   -2.151
        15           c14bf         1   UNL       c14        15    -0.10019       12.0110 ; qtot   -2.251
        16           c15bf         1   UNL       c15        16     0.15492       12.0110 ; qtot   -2.096
        17           c16bf         1   UNL       c16        17     0.18761       12.0110 ; qtot   -1.908
        18           c17bf         1   UNL       c17        18     0.12189       12.0110 ; qtot   -1.786
        19           c18bf         1   UNL       c18        19     0.12189       12.0110 ; qtot   -1.665
        20           c19bf         1   UNL       c19        20     0.18761       12.0110 ; qtot   -1.477
        21           c20bf         1   UNL       c20        21    -0.08895       12.0110 ; qtot   -1.566
        22           c21bf         1   UNL       c21        22    -0.08895       12.0110 ; qtot   -1.655
        23           c22bf         1   UNL       c22        23    -0.12723       12.0110 ; qtot   -1.782
        24           c23bf         1   UNL       c23        24     0.12751       12.0110 ; qtot   -1.655
        25           c24bf         1   UNL       c24        25    -0.16706       12.0110 ; qtot   -1.822
        26           c25bf         1   UNL       c25        26    -0.00236       12.0110 ; qtot   -1.824
        27           c26bf         1   UNL       c26        27    -0.02647       12.0110 ; qtot   -1.850
        28           c27bf         1   UNL       c27        28    -0.10543       12.0110 ; qtot   -1.956
        29           c28bf         1   UNL       c28        29    -0.10860       12.0110 ; qtot   -2.065
        30           c29bf         1   UNL       c29        30    -0.10746       12.0110 ; qtot   -2.172
        31           c30bf         1   UNL       c30        31    -0.09434       12.0110 ; qtot   -2.266
        32           f31bf         1   UNL       f31        32    -0.14733       18.9980 ; qtot   -2.414
        33           h32bf         1   UNL       h32        33     0.46480        1.0080 ; qtot   -1.949
        34           h33bf         1   UNL       h33        34     0.03299        1.0080 ; qtot   -1.916
        35           h34bf         1   UNL       h34        35     0.51984        1.0080 ; qtot   -1.396
        36           h35bf         1   UNL       h35        36     0.05174        1.0080 ; qtot   -1.344
        37           h36bf         1   UNL       h36        37     0.05174        1.0080 ; qtot   -1.293
        38           h37bf         1   UNL       h37        38     0.09494        1.0080 ; qtot   -1.198
        39           h38bf         1   UNL       h38        39     0.09494        1.0080 ; qtot   -1.103
        40           h39bf         1   UNL       h39        40     0.12104        1.0080 ; qtot   -0.982
        41           h40bf         1   UNL       h40        41     0.12104        1.0080 ; qtot   -0.861
        42           h41bf         1   UNL       h41        42     0.09494        1.0080 ; qtot   -0.766
        43           h42bf         1   UNL       h42        43     0.09494        1.0080 ; qtot   -0.671
        44           h43bf         1   UNL       h43        44     0.09222        1.0080 ; qtot   -0.578
        45           h44bf         1   UNL       h44        45     0.09222        1.0080 ; qtot   -0.486
        46           h45bf         1   UNL       h45        46     0.09222        1.0080 ; qtot   -0.394
        47           h46bf         1   UNL       h46        47     0.09222        1.0080 ; qtot   -0.302
        48           h47bf         1   UNL       h47        48     0.13560        1.0080 ; qtot   -0.166
        49           h48bf         1   UNL       h48        49     0.12328        1.0080 ; qtot   -0.043
        50           h49bf         1   UNL       h49        50     0.11425        1.0080 ; qtot    0.071
        51           h50bf         1   UNL       h50        51     0.11510        1.0080 ; qtot    0.186
        52           h51bf         1   UNL       h51        52     0.12706        1.0080 ; qtot    0.313
        53           h52bf         1   UNL       h52        53     0.51984        1.0080 ; qtot    0.833
        54           h53bf         1   UNL       h53        54     0.11491        1.0080 ; qtot    0.948
        55           h54bf         1   UNL       h54        55     0.05178        1.0080 ; qtot    1.000

[ bonds ]
;       ai        aj funct               r               k
         1         4     1        0.142351   252679.686719
         1         9     1        0.143822   227380.327832
         1        11     1        0.141682   262744.780859
         2         4     1        0.135876   295327.195654
         2         7     1        0.131805   334105.628223
         3         7     1        0.134617   275760.279395
         3        16     1        0.143715   190573.296265
         4        14     1        0.141417   264484.521973
         5         7     1        0.134892   259631.781689
         5         9     1        0.132148   354520.044531
         6        24     1        0.137267   286037.433691
         6        33     1        0.097015   469290.709082
         8        11     1        0.131821   376153.653516
         8        13     1        0.136480   250090.172754
         9        10     1        0.140901   232824.533105
        10        17     1        0.146948   183317.692749
        10        20     1        0.146948   183317.692749
        11        34     1        0.108667   316685.361377
        12        18     1        0.152806   112905.204248
        12        19     1        0.152806   112905.204248
        12        35     1        0.102639   386120.761768
        12        53     1        0.102639   386120.761768
        13        14     1        0.138887   288314.347900
        13        15     1        0.148755   205561.613110
        14        32     1        0.134924   301418.562354
        15        23     1        0.138441   336656.325781
        15        27     1        0.143385   241074.219678
        16        36     1        0.109158   306593.580957
        16        37     1        0.109158   306593.580957
        16        55     1        0.109158   306593.580957
        17        18     1        0.153876   169198.544189
        17        38     1        0.109342   300785.701709
        17        39     1        0.109342   300785.701709
        18        22     1        0.153955   164525.866064
        18        40     1        0.109058   317545.502295
        19        20     1        0.153876   169198.544189
        19        21     1        0.153955   164525.866064
        19        41     1        0.109058   317545.502295
        20        42     1        0.109342   300785.701709
        20        43     1        0.109342   300785.676172
        21        22     1        0.155779   153880.211279
        21        44     1        0.109165   310874.009082
        21        45     1        0.109165   310874.009082
        22        46     1        0.109165   310874.009082
        22        47     1        0.109165   310874.009082
        23        24     1        0.141075   273079.291504
        23        48     1        0.108483   321928.844971
        24        25     1        0.137940   335848.587012
        25        26     1        0.141990   277588.710889
        25        49     1        0.108706   315053.616699
        26        27     1        0.143426   241914.850244
        26        28     1        0.142228   272987.460059
        27        31     1        0.142351   267521.395020
        28        29     1        0.137950   355930.867676
        28        50     1        0.108682   316500.242871
        29        30     1        0.141723   275005.683350
        29        51     1        0.108630   319777.241357
        30        31     1        0.137964   353106.156934
        30        54     1        0.108629   319739.242139
        31        52     1        0.108289   324946.795020

[ angles ]
;       ai        aj        ak funct           theta             cth
         1         4         2     1      123.149879      747.718774
         1         4        14     1      116.586258      705.646514
         1         9         5     1      120.884903      574.986851
         1         9        10     1      121.465836      413.946200
         1        11         8     1      124.063927      615.128825
         1        11        34     1      120.299706      403.858308
         2         4        14     1      120.243881      364.107914
         2         7         3     1      117.099136      496.389055
         2         7         5     1      127.903885      616.679438
         3         7         5     1      115.038345      511.367176
         3        16        36     1      108.824875      461.237160
         3        16        37     1      108.824875      461.237160
         3        16        55     1      108.824875      461.237160
         4         1         9     1      115.028336      913.148679
         4         1        11     1      117.458351      814.165119
         4         2         7     1      115.384483      442.544986
         4        14        13     1      121.648415      630.256242
         4        14        32     1      117.710228      470.978706
         5         9        10     1      117.359520      561.811810
         6        24        23     1      118.744247      592.329421
         6        24        25     1      121.554031      505.541651
         7         3        16     1      116.812576      539.037049
         7         5         9     1      117.856186      863.890404
         8        11        34     1      116.178848      382.026282
         8        13        14     1      120.146713      626.021104
         8        13        15     1      116.852089      540.615498
         9         1        11     1      126.882797      516.944194
         9        10        17     1      116.649673      545.542373
         9        10        20     1      116.649673      545.542373
        10        17        18     1      110.414001      573.649664
        10        17        38     1      109.994041      435.580952
        10        17        39     1      109.994041      435.580952
        10        20        19     1      110.414001      573.649664
        10        20        42     1      109.994041      435.580952
        10        20        43     1      109.994041      435.580952
        11         8        13     1      119.788010      628.379201
        12        18        17     1      106.602722      674.110546
        12        18        22     1      101.418633      536.716811
        12        18        40     1      108.498741      494.510641
        12        19        20     1      106.602722      674.110546
        12        19        21     1      101.418633      536.716811
        12        19        41     1      108.498741      494.510641
        13        14        32     1      120.247520      441.098500
        13        15        23     1      117.798111      552.816618
        13        15        27     1      121.897705      436.274540
        14        13        15     1      122.436241      441.032167
        15        23        24     1      120.996719      685.851934
        15        23        48     1      119.895386      425.494624
        15        27        26     1      118.378708      715.987128
        15        27        31     1      123.422325      438.960342
        17        10        20     1      112.989647      531.622350
        17        18        22     1      113.199745      580.112915
        17        18        40     1      110.856812      458.517203
        18        12        19     1      101.779678      586.160933
        18        12        35     1      111.672134      452.606639
        18        12        53     1      111.672134      452.606639
        18        17        38     1      109.425522      473.224279
        18        17        39     1      109.425522      473.224279
        18        22        21     1      105.201950      510.005282
        18        22        46     1      110.206017      481.946958
        18        22        47     1      110.206017      481.946958
        19        12        35     1      111.672134      452.606639
        19        12        53     1      111.672134      452.606639
        19        20        42     1      109.425522      473.224279
        19        20        43     1      109.425522      473.224279
        19        21        22     1      105.201950      510.005282
        19        21        44     1      110.206017      481.946958
        19        21        45     1      110.206017      481.946958
        20        19        21     1      113.199745      580.112915
        20        19        41     1      110.856812      458.517203
        21        19        41     1      114.036781      411.209771
        21        22        46     1      111.675735      437.142291
        21        22        47     1      111.675735      437.142291
        22        18        40     1      114.036781      411.209771
        22        21        44     1      111.675735      437.142291
        22        21        45     1      111.675735      437.142291
        23        15        27     1      120.041763      517.390519
        23        24        25     1      120.307999      630.641087
        24         6        33     1      109.325584      602.921129
        24        23        48     1      118.926987      446.371051
        24        25        26     1      120.168907      539.603845
        24        25        49     1      120.071983      441.953291
        25        26        27     1      120.015419      735.802775
        25        26        28     1      120.733475      428.799924
        26        25        49     1      119.496605      424.666487
        26        27        31     1      118.234482      795.514730
        26        28        29     1      120.944504      589.553984
        26        28        50     1      118.762794      430.307635
        27        26        28     1      119.201309      737.079312
        27        31        30     1      121.019203      618.922937
        27        31        52     1      119.189842      434.750900
        28        29        30     1      119.870407      693.746029
        28        29        51     1      120.260780      440.627149
        29        28        50     1      120.370285      442.651635
        29        30        31     1      120.573486      702.330648
        29        30        54     1      119.684593      445.250643
        30        29        51     1      119.830894      443.363227
        30        31        52     1      119.649643      421.605482
        31        30        54     1      119.820229      443.823884
        35        12        53     1      107.850487      393.501765
        36        16        37     1      110.164505      338.466454
        36        16        55     1      110.164505      338.466390
        37        16        55     1      110.164505      338.466390
        38        17        39     1      107.831497      345.579975
        42        20        43     1      107.831497      345.579975
        44        21        45     1      107.532188      357.637353
        46        22        47     1      107.532188      357.637321

[ dihedrals ] ; propers for gromacs 4.5 or higher, use funct 9
;       ai        aj        ak        al funct           phase               k        pn
         1         4         2         7     9        0.000000       -0.402239         1
         1         4         2         7     9      180.000000       13.577882         2
         1         4         2         7     9        0.000000       -0.532067         3
         1         4         2         7     9      180.000000       -0.314446         4
         1         4        14        13     9        0.000000       -0.087716         1
         1         4        14        13     9      180.000000       12.208992         2
         1         4        14        13     9        0.000000       -0.855205         3
         1         4        14        13     9      180.000000       -0.152072         4
         1         4        14        32     9        0.000000        0.318053         1
         1         4        14        32     9      180.000000       18.653663         2
         1         4        14        32     9        0.000000        0.172680         3
         1         4        14        32     9      180.000000       -0.580668         4
         1         9         5         7     9        0.000000        0.125271         1
         1         9         5         7     9      180.000000       18.652428         2
         1         9         5         7     9        0.000000       -1.011632         3
         1         9         5         7     9      180.000000       -0.460446         4
         1         9        10        17     9        0.000000        5.434533         1
         1         9        10        17     9      180.000000        7.654269         2
         1         9        10        17     9        0.000000       -0.102298         3
         1         9        10        17     9      180.000000        0.277433         4
         1         9        10        20     9        0.000000        5.434533         1
         1         9        10        20     9      180.000000        7.654269         2
         1         9        10        20     9        0.000000       -0.102298         3
         1         9        10        20     9      180.000000        0.277433         4
         1        11         8        13     9        0.000000       -0.192161         1
         1        11         8        13     9      180.000000       25.217810         2
         1        11         8        13     9        0.000000       -1.077177         3
         1        11         8        13     9      180.000000       -0.165176         4
         2         4         1         9     9        0.000000       -0.492961         1
         2         4         1         9     9      180.000000       12.242127         2
         2         4         1         9     9        0.000000       -0.695148         3
         2         4         1         9     9      180.000000       -0.336599         4
         2         4         1        11     9        0.000000       -0.040306         1
         2         4         1        11     9      180.000000       11.633213         2
         2         4         1        11     9        0.000000       -0.146217         3
         2         4         1        11     9      180.000000       -0.305314         4
         2         4        14        13     9        0.000000        0.351533         1
         2         4        14        13     9      180.000000       11.350584         2
         2         4        14        13     9        0.000000        0.365054         3
         2         4        14        13     9      180.000000       -0.287375         4
         2         4        14        32     9        0.000000        0.215309         1
         2         4        14        32     9      180.000000       19.086697         2
         2         4        14        32     9        0.000000        0.289679         3
         2         4        14        32     9      180.000000       -0.651311         4
         2         7         3        16     9        0.000000       -1.163675         1
         2         7         3        16     9      180.000000        9.955777         2
         2         7         3        16     9        0.000000       -0.508916         3
         2         7         3        16     9      180.000000        0.332846         4
         2         7         5         9     9        0.000000        1.030889         1
         2         7         5         9     9      180.000000        9.811948         2
         2         7         5         9     9        0.000000        0.188568         3
         2         7         5         9     9      180.000000       -0.510715         4
         3         7         2         4     9        0.000000        1.095072         1
         3         7         2         4     9      180.000000       22.201771         2
         3         7         2         4     9        0.000000        1.015495         3
         3         7         2         4     9      180.000000       -1.250431         4
         3         7         5         9     9        0.000000        1.525397         1
         3         7         5         9     9      180.000000       13.992016         2
         3         7         5         9     9        0.000000        0.396892         3
         3         7         5         9     9      180.000000       -0.770047         4
         4         1         9         5     9        0.000000       -0.574438         1
         4         1         9         5     9      180.000000        6.758930         2
         4         1         9         5     9        0.000000       -0.027457         3
         4         1         9         5     9      180.000000       -0.307957         4
         4         1         9        10     9        0.000000        0.405995         1
         4         1         9        10     9      180.000000       11.105956         2
         4         1         9        10     9        0.000000        0.610926         3
         4         1         9        10     9      180.000000       -0.512439         4
         4         1        11         8     9        0.000000       -0.042493         1
         4         1        11         8     9      180.000000       13.807454         2
         4         1        11         8     9        0.000000       -0.604005         3
         4         1        11         8     9      180.000000       -0.367502         4
         4         1        11        34     9        0.000000       -0.015181         1
         4         1        11        34     9      180.000000       11.648419         2
         4         1        11        34     9        0.000000       -0.266142         3
         4         1        11        34     9      180.000000       -0.160707         4
         4         2         7         5     9        0.000000        0.374335         1
         4         2         7         5     9      180.000000       13.345755         2
         4         2         7         5     9        0.000000        0.920114         3
         4         2         7         5     9      180.000000       -0.680887         4
         4        14        13         8     9        0.000000       -0.098778         1
         4        14        13         8     9      180.000000       11.772629         2
         4        14        13         8     9        0.000000       -0.190736         3
         4        14        13         8     9      180.000000       -0.352669         4
         4        14        13        15     9        0.000000        0.253556         1
         4        14        13        15     9      180.000000       13.502624         2
         4        14        13        15     9        0.000000        0.037684         3
         4        14        13        15     9      180.000000       -0.542740         4
         5         7         3        16     9        0.000000        0.093828         1
         5         7         3        16     9      180.000000        9.792522         2
         5         7         3        16     9        0.000000        0.176875         3
         5         7         3        16     9      180.000000        0.208254         4
         5         9         1        11     9        0.000000       -1.044188         1
         5         9         1        11     9      180.000000        4.824379         2
         5         9         1        11     9        0.000000       -0.264845         3
         5         9         1        11     9      180.000000       -0.291563         4
         5         9        10        17     9        0.000000       -1.245119         1
         5         9        10        17     9      180.000000        9.664041         2
         5         9        10        17     9        0.000000       -0.199254         3
         5         9        10        17     9      180.000000        0.179751         4
         5         9        10        20     9        0.000000       -1.245119         1
         5         9        10        20     9      180.000000        9.664041         2
         5         9        10        20     9        0.000000       -0.199254         3
         5         9        10        20     9      180.000000        0.179751         4
         6        24        23        15     9        0.000000        0.218909         1
         6        24        23        15     9      180.000000       17.568913         2
         6        24        23        15     9        0.000000        0.326005         3
         6        24        23        15     9      180.000000       -0.506136         4
         6        24        23        48     9        0.000000       -0.164732         1
         6        24        23        48     9      180.000000       14.479131         2
         6        24        23        48     9        0.000000        0.063990         3
         6        24        23        48     9      180.000000        0.145108         4
         6        24        25        26     9        0.000000        0.383802         1
         6        24        25        26     9      180.000000       21.841511         2
         6        24        25        26     9        0.000000        0.368537         3
         6        24        25        26     9      180.000000       -0.947224         4
         6        24        25        49     9        0.000000        0.062009         1
         6        24        25        49     9      180.000000       16.228022         2
         6        24        25        49     9        0.000000        0.309057         3
         6        24        25        49     9      180.000000        0.000390         4
         7         2         4        14     9        0.000000       -0.368381         1
         7         2         4        14     9      180.000000       13.946052         2
         7         2         4        14     9        0.000000       -0.074924         3
         7         2         4        14     9      180.000000       -0.301301         4
         7         3        16        36     9        0.000000        0.117092         1
         7         3        16        36     9      180.000000        0.029362         2
         7         3        16        36     9        0.000000        0.394290         3
         7         3        16        36     9      180.000000        0.035679         4
         7         3        16        37     9        0.000000        0.117092         1
         7         3        16        37     9      180.000000        0.029362         2
         7         3        16        37     9        0.000000        0.394290         3
         7         3        16        37     9      180.000000        0.035679         4
         7         3        16        55     9        0.000000        0.117092         1
         7         3        16        55     9      180.000000        0.029362         2
         7         3        16        55     9        0.000000        0.394289         3
         7         3        16        55     9      180.000000        0.035680         4
         7         5         9        10     9        0.000000        0.448122         1
         7         5         9        10     9      180.000000       24.849638         2
         7         5         9        10     9        0.000000        0.141277         3
         7         5         9        10     9      180.000000       -1.122052         4
         8        11         1         9     9        0.000000       -0.911212         1
         8        11         1         9     9      180.000000       11.023641         2
         8        11         1         9     9        0.000000       -0.333461         3
         8        11         1         9     9      180.000000       -0.281768         4
         8        13        14        32     9        0.000000       -0.069904         1
         8        13        14        32     9      180.000000       20.714913         2
         8        13        14        32     9        0.000000        0.332645         3
         8        13        14        32     9      180.000000       -1.136436         4
         8        13        15        23     9        0.000000        0.492558         1
         8        13        15        23     9      180.000000        4.597678         2
         8        13        15        23     9        0.000000       -0.217549         3
         8        13        15        23     9      180.000000        0.447450         4
         8        13        15        27     9        0.000000       -1.122976         1
         8        13        15        27     9      180.000000        4.959817         2
         8        13        15        27     9        0.000000       -0.301822         3
         8        13        15        27     9      180.000000        0.462241         4
         9         1         4        14     9        0.000000       -0.875673         1
         9         1         4        14     9      180.000000       12.069203         2
         9         1         4        14     9        0.000000       -1.665482         3
         9         1         4        14     9      180.000000       -0.248650         4
         9         1        11        34     9        0.000000       -0.135678         1
         9         1        11        34     9      180.000000        9.858753         2
         9         1        11        34     9        0.000000       -0.358960         3
         9         1        11        34     9      180.000000       -0.032663         4
         9        10        17        18     9        0.000000       -3.160918         1
         9        10        17        18     9      180.000000       -0.589006         2
         9        10        17        18     9        0.000000        0.354310         3
         9        10        17        18     9      180.000000       -0.069445         4
         9        10        17        38     9        0.000000        0.010062         1
         9        10        17        38     9      180.000000        0.194484         2
         9        10        17        38     9        0.000000        0.191535         3
         9        10        17        38     9      180.000000        0.106044         4
         9        10        17        39     9        0.000000        0.010062         1
         9        10        17        39     9      180.000000        0.194484         2
         9        10        17        39     9        0.000000        0.191535         3
         9        10        17        39     9      180.000000        0.106044         4
         9        10        20        19     9        0.000000       -3.160918         1
         9        10        20        19     9      180.000000       -0.589006         2
         9        10        20        19     9        0.000000        0.354310         3
         9        10        20        19     9      180.000000       -0.069445         4
         9        10        20        42     9        0.000000        0.010062         1
         9        10        20        42     9      180.000000        0.194484         2
         9        10        20        42     9        0.000000        0.191535         3
         9        10        20        42     9      180.000000        0.106044         4
         9        10        20        43     9        0.000000        0.010062         1
         9        10        20        43     9      180.000000        0.194484         2
         9        10        20        43     9        0.000000        0.191535         3
         9        10        20        43     9      180.000000        0.106044         4
        10         9         1        11     9        0.000000        0.592968         1
        10         9         1        11     9      180.000000        8.539503         2
        10         9         1        11     9        0.000000        0.493115         3
        10         9         1        11     9      180.000000       -0.486278         4
        10        17        18        12     9        0.000000       10.360263         1
        10        17        18        12     9      180.000000       -0.455638         2
        10        17        18        12     9        0.000000        1.252755         3
        10        17        18        12     9      180.000000       -0.383471         4
        10        17        18        22     9        0.000000        8.665246         1
        10        17        18        22     9      180.000000        3.003230         2
        10        17        18        22     9        0.000000        1.172798         3
        10        17        18        22     9      180.000000       -0.235254         4
        10        17        18        40     9        0.000000        0.208836         1
        10        17        18        40     9      180.000000       -1.298774         2
        10        17        18        40     9        0.000000        0.789453         3
        10        17        18        40     9      180.000000        0.143387         4
        10        20        19        12     9        0.000000       10.360263         1
        10        20        19        12     9      180.000000       -0.455638         2
        10        20        19        12     9        0.000000        1.252755         3
        10        20        19        12     9      180.000000       -0.383471         4
        10        20        19        21     9        0.000000        8.665246         1
        10        20        19        21     9      180.000000        3.003230         2
        10        20        19        21     9        0.000000        1.172798         3
        10        20        19        21     9      180.000000       -0.235254         4
        10        20        19        41     9        0.000000        0.208836         1
        10        20        19        41     9      180.000000       -1.298774         2
        10        20        19        41     9        0.000000        0.789453         3
        10        20        19        41     9      180.000000        0.143387         4
        11         1         4        14     9        0.000000       -0.329036         1
        11         1         4        14     9      180.000000       10.718691         2
        11         1         4        14     9        0.000000       -1.144445         3
        11         1         4        14     9      180.000000       -0.069498         4
        11         8        13        14     9        0.000000       -0.040105         1
        11         8        13        14     9      180.000000       18.605255         2
        11         8        13        14     9        0.000000        0.193721         3
        11         8        13        14     9      180.000000       -0.205820         4
        11         8        13        15     9        0.000000        0.750889         1
        11         8        13        15     9      180.000000       21.003742         2
        11         8        13        15     9        0.000000        1.060821         3
        11         8        13        15     9      180.000000       -0.819870         4
        12        18        17        38     9        0.000000       -0.109135         1
        12        18        17        38     9      180.000000        0.138444         2
        12        18        17        38     9        0.000000        0.755957         3
        12        18        17        38     9      180.000000       -0.087097         4
        12        18        17        39     9        0.000000       -0.109135         1
        12        18        17        39     9      180.000000        0.138444         2
        12        18        17        39     9        0.000000        0.755957         3
        12        18        17        39     9      180.000000       -0.087097         4
        12        18        22        21     9        0.000000       -6.720876         1
        12        18        22        21     9      180.000000       11.285327         2
        12        18        22        21     9        0.000000        0.310730         3
        12        18        22        21     9      180.000000       -2.781275         4
        12        18        22        46     9        0.000000       -0.566249         1
        12        18        22        46     9      180.000000        0.138173         2
        12        18        22        46     9        0.000000        0.237111         3
        12        18        22        46     9      180.000000       -0.093240         4
        12        18        22        47     9        0.000000       -0.566249         1
        12        18        22        47     9      180.000000        0.138173         2
        12        18        22        47     9        0.000000        0.237111         3
        12        18        22        47     9      180.000000       -0.093240         4
        12        19        20        42     9        0.000000       -0.109135         1
        12        19        20        42     9      180.000000        0.138444         2
        12        19        20        42     9        0.000000        0.755957         3
        12        19        20        42     9      180.000000       -0.087097         4
        12        19        20        43     9        0.000000       -0.109134         1
        12        19        20        43     9      180.000000        0.138443         2
        12        19        20        43     9        0.000000        0.755957         3
        12        19        20        43     9      180.000000       -0.087098         4
        12        19        21        22     9        0.000000       -6.720876         1
        12        19        21        22     9      180.000000       11.285327         2
        12        19        21        22     9        0.000000        0.310730         3
        12        19        21        22     9      180.000000       -2.781275         4
        12        19        21        44     9        0.000000       -0.566249         1
        12        19        21        44     9      180.000000        0.138173         2
        12        19        21        44     9        0.000000        0.237111         3
        12        19        21        44     9      180.000000       -0.093240         4
        12        19        21        45     9        0.000000       -0.566249         1
        12        19        21        45     9      180.000000        0.138173         2
        12        19        21        45     9        0.000000        0.237111         3
        12        19        21        45     9      180.000000       -0.093240         4
        13         8        11        34     9        0.000000        0.914858         1
        13         8        11        34     9      180.000000       23.293351         2
        13         8        11        34     9        0.000000        0.203953         3
        13         8        11        34     9      180.000000       -0.347354         4
        13        15        23        24     9        0.000000        0.250686         1
        13        15        23        24     9      180.000000       17.857536         2
        13        15        23        24     9        0.000000       -0.169817         3
        13        15        23        24     9      180.000000       -0.502190         4
        13        15        23        48     9        0.000000       -0.155671         1
        13        15        23        48     9      180.000000       13.537844         2
        13        15        23        48     9        0.000000       -0.282329         3
        13        15        23        48     9      180.000000        0.310555         4
        13        15        27        26     9        0.000000        0.036514         1
        13        15        27        26     9      180.000000       12.528648         2
        13        15        27        26     9        0.000000        0.094920         3
        13        15        27        26     9      180.000000       -0.299193         4
        13        15        27        31     9        0.000000       -0.167507         1
        13        15        27        31     9      180.000000       11.098553         2
        13        15        27        31     9        0.000000        0.063123         3
        13        15        27        31     9      180.000000       -0.112325         4
        14        13        15        23     9        0.000000       -0.034964         1
        14        13        15        23     9      180.000000        4.475756         2
        14        13        15        23     9        0.000000       -0.138642         3
        14        13        15        23     9      180.000000        0.581220         4
        14        13        15        27     9        0.000000        0.154673         1
        14        13        15        27     9      180.000000        4.284445         2
        14        13        15        27     9        0.000000        0.051282         3
        14        13        15        27     9      180.000000        0.580248         4
        15        13        14        32     9        0.000000        0.127621         1
        15        13        14        32     9      180.000000       20.603230         2
        15        13        14        32     9        0.000000        0.675927         3
        15        13        14        32     9      180.000000       -1.375893         4
        15        23        24        25     9        0.000000       -0.052969         1
        15        23        24        25     9      180.000000       14.141082         2
        15        23        24        25     9        0.000000       -0.753509         3
        15        23        24        25     9      180.000000       -0.237468         4
        15        27        26        25     9        0.000000        0.275230         1
        15        27        26        25     9      180.000000       11.537237         2
        15        27        26        25     9        0.000000       -0.683331         3
        15        27        26        25     9      180.000000       -0.240015         4
        15        27        26        28     9        0.000000        0.266566         1
        15        27        26        28     9      180.000000       11.376948         2
        15        27        26        28     9        0.000000       -0.758995         3
        15        27        26        28     9      180.000000       -0.216461         4
        15        27        31        30     9        0.000000       -0.151753         1
        15        27        31        30     9      180.000000       14.390816         2
        15        27        31        30     9        0.000000       -0.878288         3
        15        27        31        30     9      180.000000       -0.181431         4
        15        27        31        52     9        0.000000       -0.099856         1
        15        27        31        52     9      180.000000       11.955098         2
        15        27        31        52     9        0.000000       -0.455839         3
        15        27        31        52     9      180.000000        0.033729         4
        17        10        20        19     9        0.000000        3.153128         1
        17        10        20        19     9      180.000000       -3.348936         2
        17        10        20        19     9        0.000000        0.519549         3
        17        10        20        19     9      180.000000        0.090461         4
        17        10        20        42     9        0.000000       -0.428027         1
        17        10        20        42     9      180.000000        0.276116         2
        17        10        20        42     9        0.000000        0.876566         3
        17        10        20        42     9      180.000000       -0.010241         4
        17        10        20        43     9        0.000000       -0.428028         1
        17        10        20        43     9      180.000000        0.276116         2
        17        10        20        43     9        0.000000        0.876566         3
        17        10        20        43     9      180.000000       -0.010241         4
        17        18        12        19     9        0.000000       -0.856051         1
        17        18        12        19     9      180.000000       -3.154670         2
        17        18        12        19     9        0.000000        0.341030         3
        17        18        12        19     9      180.000000       -0.429377         4
        17        18        12        35     9        0.000000        3.791340         1
        17        18        12        35     9      180.000000        0.915309         2
        17        18        12        35     9        0.000000        0.458893         3
        17        18        12        35     9      180.000000        0.414023         4
        17        18        12        53     9        0.000000        3.791341         1
        17        18        12        53     9      180.000000        0.915310         2
        17        18        12        53     9        0.000000        0.458893         3
        17        18        12        53     9      180.000000        0.414023         4
        17        18        22        21     9        0.000000        0.958472         1
        17        18        22        21     9      180.000000        1.828224         2
        17        18        22        21     9        0.000000        0.287884         3
        17        18        22        21     9      180.000000       -0.116138         4
        17        18        22        46     9        0.000000       -0.152771         1
        17        18        22        46     9      180.000000       -0.126016         2
        17        18        22        46     9        0.000000        0.292799         3
        17        18        22        46     9      180.000000        0.022367         4
        17        18        22        47     9        0.000000       -0.152771         1
        17        18        22        47     9      180.000000       -0.126016         2
        17        18        22        47     9        0.000000        0.292799         3
        17        18        22        47     9      180.000000        0.022367         4
        18        12        19        20     9        0.000000       -0.856051         1
        18        12        19        20     9      180.000000       -3.154670         2
        18        12        19        20     9        0.000000        0.341030         3
        18        12        19        20     9      180.000000       -0.429377         4
        18        12        19        21     9        0.000000       -8.011949         1
        18        12        19        21     9      180.000000        8.433477         2
        18        12        19        21     9        0.000000        0.257643         3
        18        12        19        21     9      180.000000       -4.599935         4
        18        12        19        41     9        0.000000       -1.122174         1
        18        12        19        41     9      180.000000       -5.819556         2
        18        12        19        41     9        0.000000        0.140568         3
        18        12        19        41     9      180.000000        0.114691         4
        18        17        10        20     9        0.000000        3.153128         1
        18        17        10        20     9      180.000000       -3.348936         2
        18        17        10        20     9        0.000000        0.519549         3
        18        17        10        20     9      180.000000        0.090461         4
        18        22        21        19     9        0.000000       -0.441188         1
        18        22        21        19     9      180.000000        1.461408         2
        18        22        21        19     9        0.000000        0.090583         3
        18        22        21        19     9      180.000000       -1.237683         4
        18        22        21        44     9        0.000000       -0.040956         1
        18        22        21        44     9      180.000000       -0.134545         2
        18        22        21        44     9        0.000000        0.175830         3
        18        22        21        44     9      180.000000        0.068007         4
        18        22        21        45     9        0.000000       -0.040956         1
        18        22        21        45     9      180.000000       -0.134545         2
        18        22        21        45     9        0.000000        0.175830         3
        18        22        21        45     9      180.000000        0.068007         4
        19        12        18        22     9        0.000000       -8.011949         1
        19        12        18        22     9      180.000000        8.433477         2
        19        12        18        22     9        0.000000        0.257643         3
        19        12        18        22     9      180.000000       -4.599935         4
        19        12        18        40     9        0.000000       -1.122174         1
        19        12        18        40     9      180.000000       -5.819556         2
        19        12        18        40     9        0.000000        0.140568         3
        19        12        18        40     9      180.000000        0.114691         4
        19        21        22        46     9        0.000000       -0.040956         1
        19        21        22        46     9      180.000000       -0.134545         2
        19        21        22        46     9        0.000000        0.175830         3
        19        21        22        46     9      180.000000        0.068007         4
        19        21        22        47     9        0.000000       -0.040956         1
        19        21        22        47     9      180.000000       -0.134545         2
        19        21        22        47     9        0.000000        0.175830         3
        19        21        22        47     9      180.000000        0.068007         4
        20        10        17        38     9        0.000000       -0.428027         1
        20        10        17        38     9      180.000000        0.276116         2
        20        10        17        38     9        0.000000        0.876566         3
        20        10        17        38     9      180.000000       -0.010241         4
        20        10        17        39     9        0.000000       -0.428027         1
        20        10        17        39     9      180.000000        0.276116         2
        20        10        17        39     9        0.000000        0.876566         3
        20        10        17        39     9      180.000000       -0.010241         4
        20        19        12        35     9        0.000000        3.791340         1
        20        19        12        35     9      180.000000        0.915309         2
        20        19        12        35     9        0.000000        0.458893         3
        20        19        12        35     9      180.000000        0.414023         4
        20        19        12        53     9        0.000000        3.791341         1
        20        19        12        53     9      180.000000        0.915310         2
        20        19        12        53     9        0.000000        0.458893         3
        20        19        12        53     9      180.000000        0.414023         4
        20        19        21        22     9        0.000000        0.958472         1
        20        19        21        22     9      180.000000        1.828224         2
        20        19        21        22     9        0.000000        0.287884         3
        20        19        21        22     9      180.000000       -0.116138         4
        20        19        21        44     9        0.000000       -0.152771         1
        20        19        21        44     9      180.000000       -0.126016         2
        20        19        21        44     9        0.000000        0.292799         3
        20        19        21        44     9      180.000000        0.022367         4
        20        19        21        45     9        0.000000       -0.152771         1
        20        19        21        45     9      180.000000       -0.126016         2
        20        19        21        45     9        0.000000        0.292799         3
        20        19        21        45     9      180.000000        0.022367         4
        21        19        12        35     9        0.000000       -3.138484         1
        21        19        12        35     9      180.000000        2.167027         2
        21        19        12        35     9        0.000000        0.241529         3
        21        19        12        35     9      180.000000       -0.244106         4
        21        19        12        53     9        0.000000       -3.138484         1
        21        19        12        53     9      180.000000        2.167027         2
        21        19        12        53     9        0.000000        0.241529         3
        21        19        12        53     9      180.000000       -0.244107         4
        21        19        20        42     9        0.000000       -0.249238         1
        21        19        20        42     9      180.000000        0.008703         2
        21        19        20        42     9        0.000000        0.634047         3
        21        19        20        42     9      180.000000        0.041269         4
        21        19        20        43     9        0.000000       -0.249238         1
        21        19        20        43     9      180.000000        0.008703         2
        21        19        20        43     9        0.000000        0.634047         3
        21        19        20        43     9      180.000000        0.041269         4
        21        22        18        40     9        0.000000        0.718089         1
        21        22        18        40     9      180.000000        0.470470         2
        21        22        18        40     9        0.000000        0.272978         3
        21        22        18        40     9      180.000000        0.606890         4
        22        18        12        35     9        0.000000       -3.138484         1
        22        18        12        35     9      180.000000        2.167027         2
        22        18        12        35     9        0.000000        0.241529         3
        22        18        12        35     9      180.000000       -0.244106         4
        22        18        12        53     9        0.000000       -3.138484         1
        22        18        12        53     9      180.000000        2.167027         2
        22        18        12        53     9        0.000000        0.241529         3
        22        18        12        53     9      180.000000       -0.244107         4
        22        18        17        38     9        0.000000       -0.249238         1
        22        18        17        38     9      180.000000        0.008703         2
        22        18        17        38     9        0.000000        0.634047         3
        22        18        17        38     9      180.000000        0.041269         4
        22        18        17        39     9        0.000000       -0.249238         1
        22        18        17        39     9      180.000000        0.008703         2
        22        18        17        39     9        0.000000        0.634047         3
        22        18        17        39     9      180.000000        0.041269         4
        22        21        19        41     9        0.000000        0.718089         1
        22        21        19        41     9      180.000000        0.470470         2
        22        21        19        41     9        0.000000        0.272978         3
        22        21        19        41     9      180.000000        0.606890         4
        23        15        27        26     9        0.000000       -0.232581         1
        23        15        27        26     9      180.000000       13.863860         2
        23        15        27        26     9        0.000000       -0.918852         3
        23        15        27        26     9      180.000000       -0.059429         4
        23        15        27        31     9        0.000000       -0.322740         1
        23        15        27        31     9      180.000000       11.005225         2
        23        15        27        31     9        0.000000       -0.523544         3
        23        15        27        31     9      180.000000       -0.010433         4
        23        24         6        33     9        0.000000        0.029724         1
        23        24         6        33     9      180.000000        4.418198         2
        23        24         6        33     9        0.000000        0.259931         3
        23        24         6        33     9      180.000000        0.070167         4
        23        24        25        26     9        0.000000        0.034398         1
        23        24        25        26     9      180.000000       17.526234         2
        23        24        25        26     9        0.000000       -0.948343         3
        23        24        25        26     9      180.000000       -0.364161         4
        23        24        25        49     9        0.000000        0.054554         1
        23        24        25        49     9      180.000000       13.572453         2
        23        24        25        49     9        0.000000       -0.315396         3
        23        24        25        49     9      180.000000        0.066219         4
        24        23        15        27     9        0.000000       -0.005901         1
        24        23        15        27     9      180.000000       19.419318         2
        24        23        15        27     9        0.000000       -1.690780         3
        24        23        15        27     9      180.000000       -0.309985         4
        24        25        26        27     9        0.000000       -0.119183         1
        24        25        26        27     9      180.000000       15.218758         2
        24        25        26        27     9        0.000000       -0.862447         3
        24        25        26        27     9      180.000000       -0.316684         4
        24        25        26        28     9        0.000000       -0.030038         1
        24        25        26        28     9      180.000000       13.937454         2
        24        25        26        28     9        0.000000       -0.728657         3
        24        25        26        28     9      180.000000       -0.219551         4
        25        24         6        33     9        0.000000        0.368933         1
        25        24         6        33     9      180.000000        4.400315         2
        25        24         6        33     9        0.000000        0.004068         3
        25        24         6        33     9      180.000000        0.093321         4
        25        24        23        48     9        0.000000        0.003290         1
        25        24        23        48     9      180.000000       11.491871         2
        25        24        23        48     9        0.000000       -0.439620         3
        25        24        23        48     9      180.000000        0.183935         4
        25        26        27        31     9        0.000000        0.179966         1
        25        26        27        31     9      180.000000       11.086627         2
        25        26        27        31     9        0.000000       -0.618121         3
        25        26        27        31     9      180.000000       -0.122727         4
        25        26        28        29     9        0.000000       -0.175252         1
        25        26        28        29     9      180.000000       13.715377         2
        25        26        28        29     9        0.000000       -0.754906         3
        25        26        28        29     9      180.000000       -0.137984         4
        25        26        28        50     9        0.000000       -0.139741         1
        25        26        28        50     9      180.000000       11.576458         2
        25        26        28        50     9        0.000000       -0.517429         3
        25        26        28        50     9      180.000000        0.074638         4
        26        27        31        30     9        0.000000       -0.136598         1
        26        27        31        30     9      180.000000       16.619234         2
        26        27        31        30     9        0.000000       -0.902999         3
        26        27        31        30     9      180.000000       -0.279003         4
        26        27        31        52     9        0.000000       -0.031015         1
        26        27        31        52     9      180.000000       12.453725         2
        26        27        31        52     9        0.000000       -0.108386         3
        26        27        31        52     9      180.000000        0.021980         4
        26        28        29        30     9        0.000000       -0.143594         1
        26        28        29        30     9      180.000000       20.838357         2
        26        28        29        30     9        0.000000       -1.713075         3
        26        28        29        30     9      180.000000       -0.479911         4
        26        28        29        51     9        0.000000        0.024901         1
        26        28        29        51     9      180.000000       16.020035         2
        26        28        29        51     9        0.000000       -0.619277         3
        26        28        29        51     9      180.000000        0.012225         4
        27        15        23        48     9        0.000000       -0.067122         1
        27        15        23        48     9      180.000000       15.936563         2
        27        15        23        48     9        0.000000       -0.458132         3
        27        15        23        48     9      180.000000        0.097235         4
        27        26        25        49     9        0.000000       -0.067533         1
        27        26        25        49     9      180.000000       12.187668         2
        27        26        25        49     9        0.000000       -0.189321         3
        27        26        25        49     9      180.000000       -0.035825         4
        27        26        28        29     9        0.000000       -0.136576         1
        27        26        28        29     9      180.000000       15.578632         2
        27        26        28        29     9        0.000000       -0.990997         3
        27        26        28        29     9      180.000000       -0.271023         4
        27        26        28        50     9        0.000000       -0.077270         1
        27        26        28        50     9      180.000000       12.288377         2
        27        26        28        50     9        0.000000       -0.194724         3
        27        26        28        50     9      180.000000       -0.090264         4
        27        31        30        29     9        0.000000       -0.113764         1
        27        31        30        29     9      180.000000       20.952183         2
        27        31        30        29     9        0.000000       -1.628859         3
        27        31        30        29     9      180.000000       -0.452003         4
        27        31        30        54     9        0.000000        0.080022         1
        27        31        30        54     9      180.000000       16.180805         2
        27        31        30        54     9        0.000000       -0.580342         3
        27        31        30        54     9      180.000000       -0.027974         4
        28        26        25        49     9        0.000000       -0.157633         1
        28        26        25        49     9      180.000000       11.466075         2
        28        26        25        49     9        0.000000       -0.424825         3
        28        26        25        49     9      180.000000        0.052555         4
        28        26        27        31     9        0.000000        0.104019         1
        28        26        27        31     9      180.000000       10.945845         2
        28        26        27        31     9        0.000000       -0.687249         3
        28        26        27        31     9      180.000000       -0.096364         4
        28        29        30        31     9        0.000000        0.082329         1
        28        29        30        31     9      180.000000       15.862272         2
        28        29        30        31     9        0.000000       -1.357267         3
        28        29        30        31     9      180.000000       -0.274819         4
        28        29        30        54     9        0.000000        0.010175         1
        28        29        30        54     9      180.000000       12.759143         2
        28        29        30        54     9        0.000000       -0.611257         3
        28        29        30        54     9      180.000000        0.083325         4
        29        30        31        52     9        0.000000        0.039665         1
        29        30        31        52     9      180.000000       16.184938         2
        29        30        31        52     9        0.000000       -0.479314         3
        29        30        31        52     9      180.000000        0.139669         4
        30        29        28        50     9        0.000000       -0.001998         1
        30        29        28        50     9      180.000000       16.307274         2
        30        29        28        50     9        0.000000       -0.453080         3
        30        29        28        50     9      180.000000        0.073913         4
        31        30        29        51     9        0.000000       -0.075682         1
        31        30        29        51     9      180.000000       12.728854         2
        31        30        29        51     9        0.000000       -0.639822         3
        31        30        29        51     9      180.000000        0.086114         4
        35        12        18        40     9        0.000000       -0.497209         1
        35        12        18        40     9      180.000000        2.354123         2
        35        12        18        40     9        0.000000        0.397744         3
        35        12        18        40     9      180.000000        0.067521         4
        35        12        19        41     9        0.000000       -0.497209         1
        35        12        19        41     9      180.000000        2.354123         2
        35        12        19        41     9        0.000000        0.397744         3
        35        12        19        41     9      180.000000        0.067521         4
        38        17        18        40     9        0.000000        0.154149         1
        38        17        18        40     9      180.000000        0.583964         2
        38        17        18        40     9        0.000000        0.589180         3
        38        17        18        40     9      180.000000       -0.059466         4
        39        17        18        40     9        0.000000        0.154149         1
        39        17        18        40     9      180.000000        0.583964         2
        39        17        18        40     9        0.000000        0.589180         3
        39        17        18        40     9      180.000000       -0.059466         4
        40        18        12        53     9        0.000000       -0.497208         1
        40        18        12        53     9      180.000000        2.354122         2
        40        18        12        53     9        0.000000        0.397744         3
        40        18        12        53     9      180.000000        0.067521         4
        40        18        22        46     9        0.000000       -0.104800         1
        40        18        22        46     9      180.000000        0.054430         2
        40        18        22        46     9        0.000000        0.500456         3
        40        18        22        46     9      180.000000       -0.079027         4
        40        18        22        47     9        0.000000       -0.104800         1
        40        18        22        47     9      180.000000        0.054430         2
        40        18        22        47     9        0.000000        0.500456         3
        40        18        22        47     9      180.000000       -0.079027         4
        41        19        12        53     9        0.000000       -0.497208         1
        41        19        12        53     9      180.000000        2.354122         2
        41        19        12        53     9        0.000000        0.397744         3
        41        19        12        53     9      180.000000        0.067521         4
        41        19        20        42     9        0.000000        0.154149         1
        41        19        20        42     9      180.000000        0.583964         2
        41        19        20        42     9        0.000000        0.589180         3
        41        19        20        42     9      180.000000       -0.059466         4
        41        19        20        43     9        0.000000        0.154148         1
        41        19        20        43     9      180.000000        0.583964         2
        41        19        20        43     9        0.000000        0.589179         3
        41        19        20        43     9      180.000000       -0.059466         4
        41        19        21        44     9        0.000000       -0.104800         1
        41        19        21        44     9      180.000000        0.054430         2
        41        19        21        44     9        0.000000        0.500456         3
        41        19        21        44     9      180.000000       -0.079027         4
        41        19        21        45     9        0.000000       -0.104800         1
        41        19        21        45     9      180.000000        0.054430         2
        41        19        21        45     9        0.000000        0.500456         3
        41        19        21        45     9      180.000000       -0.079027         4
        44        21        22        46     9        0.000000        0.035023         1
        44        21        22        46     9      180.000000        0.050947         2
        44        21        22        46     9        0.000000        0.415366         3
        44        21        22        46     9      180.000000       -0.045840         4
        44        21        22        47     9        0.000000        0.035023         1
        44        21        22        47     9      180.000000        0.050947         2
        44        21        22        47     9        0.000000        0.415366         3
        44        21        22        47     9      180.000000       -0.045840         4
        45        21        22        46     9        0.000000        0.035023         1
        45        21        22        46     9      180.000000        0.050947         2
        45        21        22        46     9        0.000000        0.415366         3
        45        21        22        46     9      180.000000       -0.045840         4
        45        21        22        47     9        0.000000        0.035023         1
        45        21        22        47     9      180.000000        0.050947         2
        45        21        22        47     9        0.000000        0.415366         3
        45        21        22        47     9      180.000000       -0.045840         4
        50        28        29        51     9        0.000000       -0.112277         1
        50        28        29        51     9      180.000000       12.671001         2
        50        28        29        51     9        0.000000       -0.579624         3
        50        28        29        51     9      180.000000        0.288668         4
        51        29        30        54     9        0.000000       -0.172262         1
        51        29        30        54     9      180.000000       10.135425         2
        51        29        30        54     9        0.000000       -0.390726         3
        51        29        30        54     9      180.000000        0.126592         4
        52        31        30        54     9        0.000000       -0.178709         1
        52        31        30        54     9      180.000000       12.714361         2
        52        31        30        54     9        0.000000       -0.687478         3
        52        31        30        54     9      180.000000        0.371713         4

[ dihedrals ] ; impropers
;       ai        aj        ak        al funct           phase               k        pn
         7         2         3         5     4      180.000000       27.893333         2
         7         3         5         2     4      180.000000       27.893333         2
         7         5         2         3     4      180.000000       27.893333         2
         9         1         5        10     4      180.000000        8.564751         2
         9         5        10         1     4      180.000000        8.564751         2
         9        10         1         5     4      180.000000        8.564751         2
        11         1         8        34     4      180.000000        1.918375         2
        11         8        34         1     4      180.000000        1.918375         2
        11        34         1         8     4      180.000000        1.918375         2
        30        29        31        54     4      180.000000        0.320285         2
        30        31        54        29     4      180.000000        0.320285         2
        30        54        29        31     4      180.000000        0.320285         2

[ pairs ]
;       ai        aj funct
         1         7     1
         1        13     1
         1        17     1
         1        20     1
         1        32     1
         2         9     1
         2        11     1
         2        13     1
         2        16     1
         2        32     1
         3         4     1
         3         9     1
         4         5     1
         4         8     1
         4        10     1
         4        15     1
         4        34     1
         5        11     1
         5        16     1
         5        17     1
         5        20     1
         6        15     1
         6        26     1
         6        48     1
         6        49     1
         7        10     1
         7        14     1
         7        36     1
         7        37     1
         7        55     1
         8         9     1
         8        23     1
         8        27     1
         8        32     1
         9        14     1
         9        18     1
         9        19     1
         9        34     1
         9        38     1
         9        39     1
         9        42     1
         9        43     1
        10        11     1
        10        12     1
        10        21     1
        10        22     1
        10        40     1
        10        41     1
        11        14     1
        11        15     1
        12        38     1
        12        39     1
        12        42     1
        12        43     1
        12        44     1
        12        45     1
        12        46     1
        12        47     1
        13        24     1
        13        26     1
        13        31     1
        13        34     1
        13        48     1
        14        23     1
        14        27     1
        15        25     1
        15        28     1
        15        30     1
        15        32     1
        15        52     1
        17        19     1
        17        21     1
        17        35     1
        17        42     1
        17        43     1
        17        46     1
        17        47     1
        17        53     1
        18        20     1
        18        41     1
        18        44     1
        18        45     1
        19        40     1
        19        46     1
        19        47     1
        20        22     1
        20        35     1
        20        38     1
        20        39     1
        20        44     1
        20        45     1
        20        53     1
        21        35     1
        21        40     1
        21        42     1
        21        43     1
        21        53     1
        22        35     1
        22        38     1
        22        39     1
        22        41     1
        22        53     1
        23        26     1
        23        31     1
        23        33     1
        23        49     1
        24        27     1
        24        28     1
        25        29     1
        25        31     1
        25        33     1
        25        48     1
        25        50     1
        26        30     1
        26        51     1
        26        52     1
        27        29     1
        27        48     1
        27        49     1
        27        50     1
        27        54     1
        28        31     1
        28        49     1
        28        54     1
        29        52     1
        30        50     1
        31        51     1
        35        40     1
        35        41     1
        38        40     1
        39        40     1
        40        46     1
        40        47     1
        40        53     1
        41        42     1
        41        43     1
        41        44     1
        41        45     1
        41        53     1
        44        46     1
        44        47     1
        45        46     1
        45        47     1
        50        51     1
        51        54     1
        52        54     1
