; ITP file created by ByteFF-ML, 2026-01-07 07:32:11.890916

[ atomtypes ]
;name           bonded.type        at.num        mass        charge   ptype           sigma         epsilon
 c0bf                                   6      0.0000       0.00000       A     3.31643e-01     4.14234e-01
 n1bf                                   7      0.0000       0.00000       A     3.38612e-01     3.95291e-01
 o2bf                                   8      0.0000       0.00000       A     3.15982e-01     3.09926e-01
 c3bf                                   6      0.0000       0.00000       A     3.31246e-01     4.16317e-01
 n4bf                                   7      0.0000       0.00000       A     3.38224e-01     3.92446e-01
 c5bf                                   6      0.0000       0.00000       A     3.31664e-01     4.13669e-01
 n6bf                                   7      0.0000       0.00000       A     3.38654e-01     3.91454e-01
 c7bf                                   6      0.0000       0.00000       A     3.31345e-01     4.09248e-01
 n8bf                                   7      0.0000       0.00000       A     3.18923e-01     8.93580e-01
 c9bf                                   6      0.0000       0.00000       A     3.31425e-01     4.12209e-01
 n10bf                                  7      0.0000       0.00000       A     2.68098e-01     7.07337e+00
 c11bf                                  6      0.0000       0.00000       A     3.31371e-01     4.11861e-01
 n12bf                                  7      0.0000       0.00000       A     2.58473e-01     1.06348e+01
 c13bf                                  6      0.0000       0.00000       A     3.31479e-01     4.13996e-01
 c14bf                                  6      0.0000       0.00000       A     3.30922e-01     4.10214e-01
 c15bf                                  6      0.0000       0.00000       A     3.39722e-01     4.49242e-01
 c16bf                                  6      0.0000       0.00000       A     3.39089e-01     4.49819e-01
 c17bf                                  6      0.0000       0.00000       A     3.39791e-01     4.48492e-01
 c18bf                                  6      0.0000       0.00000       A     3.39791e-01     4.48492e-01
 c19bf                                  6      0.0000       0.00000       A     3.39089e-01     4.49819e-01
 c20bf                                  6      0.0000       0.00000       A     3.40042e-01     4.52313e-01
 c21bf                                  6      0.0000       0.00000       A     3.40042e-01     4.52313e-01
 c22bf                                  6      0.0000       0.00000       A     3.31500e-01     4.12954e-01
 c23bf                                  6      0.0000       0.00000       A     3.31537e-01     4.12911e-01
 c24bf                                  6      0.0000       0.00000       A     3.31447e-01     4.13468e-01
 c25bf                                  6      0.0000       0.00000       A     3.31435e-01     4.13020e-01
 c26bf                                  6      0.0000       0.00000       A     3.31482e-01     4.11009e-01
 c27bf                                  6      0.0000       0.00000       A     3.31435e-01     4.13522e-01
 c28bf                                  6      0.0000       0.00000       A     3.31502e-01     4.12841e-01
 c29bf                                  6      0.0000       0.00000       A     3.31437e-01     4.11912e-01
 c30bf                                  6      0.0000       0.00000       A     3.31426e-01     4.13763e-01
 c31bf                                  6      0.0000       0.00000       A     3.40278e-01     4.58255e-01
 c32bf                                  6      0.0000       0.00000       A     3.39622e-01     4.51817e-01
 c33bf                                  6      0.0000       0.00000       A     3.39624e-01     4.53182e-01
 c34bf                                  6      0.0000       0.00000       A     3.39769e-01     4.50465e-01
 c35bf                                  6      0.0000       0.00000       A     3.39909e-01     4.49100e-01
 c36bf                                  6      0.0000       0.00000       A     3.39304e-01     4.45519e-01
 c37bf                                  6      0.0000       0.00000       A     3.39684e-01     4.54428e-01
 c38bf                                  6      0.0000       0.00000       A     3.39726e-01     4.50601e-01
 c39bf                                  6      0.0000       0.00000       A     3.39726e-01     4.50601e-01
 cl40bf                                17      0.0000       0.00000       A     3.46346e-01     1.10398e+00
 f41bf                                  9      0.0000       0.00000       A     3.03457e-01     3.49753e-01
 h42bf                                  1      0.0000       0.00000       A     2.62545e-01     6.77021e-02
 h43bf                                  1      0.0000       0.00000       A     2.53621e-01     6.72663e-02
 h44bf                                  1      0.0000       0.00000       A     1.10411e-01     4.09392e-02
 h45bf                                  1      0.0000       0.00000       A     2.41558e-01     8.71262e-02
 h46bf                                  1      0.0000       0.00000       A     2.41558e-01     8.71262e-02
 h47bf                                  1      0.0000       0.00000       A     2.41770e-01     8.68852e-02
 h48bf                                  1      0.0000       0.00000       A     2.41770e-01     8.68852e-02
 h49bf                                  1      0.0000       0.00000       A     1.89725e-01     8.84605e-02
 h50bf                                  1      0.0000       0.00000       A     1.89725e-01     8.84605e-02
 h51bf                                  1      0.0000       0.00000       A     2.41770e-01     8.68852e-02
 h52bf                                  1      0.0000       0.00000       A     2.41770e-01     8.68852e-02
 h53bf                                  1      0.0000       0.00000       A     2.60102e-01     8.79977e-02
 h54bf                                  1      0.0000       0.00000       A     2.60102e-01     8.79977e-02
 h55bf                                  1      0.0000       0.00000       A     2.60102e-01     8.79977e-02
 h56bf                                  1      0.0000       0.00000       A     2.60102e-01     8.79977e-02
 h57bf                                  1      0.0000       0.00000       A     2.62505e-01     6.72312e-02
 h58bf                                  1      0.0000       0.00000       A     2.62512e-01     6.75552e-02
 h59bf                                  1      0.0000       0.00000       A     2.62512e-01     6.75552e-02
 h60bf                                  1      0.0000       0.00000       A     2.62531e-01     6.75169e-02
 h61bf                                  1      0.0000       0.00000       A     2.60014e-01     8.63569e-02
 h62bf                                  1      0.0000       0.00000       A     2.60014e-01     8.63569e-02
 h63bf                                  1      0.0000       0.00000       A     2.59774e-01     8.76577e-02
 h64bf                                  1      0.0000       0.00000       A     1.88458e-01     8.70975e-02
 h65bf                                  1      0.0000       0.00000       A     1.88458e-01     8.70975e-02
 h66bf                                  1      0.0000       0.00000       A     1.89574e-01     8.49747e-02
 h67bf                                  1      0.0000       0.00000       A     1.89574e-01     8.49747e-02
 h68bf                                  1      0.0000       0.00000       A     2.42126e-01     8.72411e-02
 h69bf                                  1      0.0000       0.00000       A     2.42126e-01     8.72411e-02
 h70bf                                  1      0.0000       0.00000       A     2.60076e-01     8.86026e-02
 h71bf                                  1      0.0000       0.00000       A     2.60076e-01     8.86026e-02
 h72bf                                  1      0.0000       0.00000       A     2.59774e-01     8.76577e-02
 h73bf                                  1      0.0000       0.00000       A     1.10411e-01     4.09392e-02
 h74bf                                  1      0.0000       0.00000       A     1.10979e-01     4.07955e-02
 h75bf                                  1      0.0000       0.00000       A     2.62510e-01     6.72600e-02
 h76bf                                  1      0.0000       0.00000       A     2.42126e-01     8.72411e-02
 h77bf                                  1      0.0000       0.00000       A     2.42126e-01     8.72411e-02
 h78bf                                  1      0.0000       0.00000       A     2.42126e-01     8.72411e-02
 h79bf                                  1      0.0000       0.00000       A     2.42126e-01     8.72411e-02
 o80bf                                  8      0.0000       0.00000       A     3.16005e-01     2.99986e-01
 o81bf                                  8      0.0000       0.00000       A     3.16005e-01     2.99986e-01

[ moleculetype ]
;name             nrexcl
 MRTX_404_7RPZ_stereo1       3

[ atoms ]
;       nr            type      resi   res      atom      cgnr      charge          mass ; qtot
         1            c0bf         1   UNL        c0         1    -0.21159       12.0110 ; qtot   -0.212
         2            n1bf         1   UNL        n1         2    -0.21431       14.0070 ; qtot   -0.426
         3            o2bf         1   UNL        o2         3    -0.43465       15.9990 ; qtot   -0.861
         4            c3bf         1   UNL        c3         4     0.09001       12.0110 ; qtot   -0.771
         5            n4bf         1   UNL        n4         5    -0.30392       14.0070 ; qtot   -1.074
         6            c5bf         1   UNL        c5         6     0.40705       12.0110 ; qtot   -0.667
         7            n6bf         1   UNL        n6         7    -0.64486       14.0070 ; qtot   -1.312
         8            c7bf         1   UNL        c7         8     0.42244       12.0110 ; qtot   -0.890
         9            n8bf         1   UNL        n8         9    -0.75767       14.0070 ; qtot   -1.647
        10            c9bf         1   UNL        c9        10     0.39442       12.0110 ; qtot   -1.253
        11           n10bf         1   UNL       n10        11    -0.84599       14.0070 ; qtot   -2.099
        12           c11bf         1   UNL       c11        12     0.37844       12.0110 ; qtot   -1.721
        13           n12bf         1   UNL       n12        13    -0.69599       14.0070 ; qtot   -2.417
        14           c13bf         1   UNL       c13        14     0.13781       12.0110 ; qtot   -2.279
        15           c14bf         1   UNL       c14        15    -0.11297       12.0110 ; qtot   -2.392
        16           c15bf         1   UNL       c15        16     0.18280       12.0110 ; qtot   -2.209
        17           c16bf         1   UNL       c16        17     0.18761       12.0110 ; qtot   -2.021
        18           c17bf         1   UNL       c17        18     0.12189       12.0110 ; qtot   -1.899
        19           c18bf         1   UNL       c18        19     0.12189       12.0110 ; qtot   -1.778
        20           c19bf         1   UNL       c19        20     0.18761       12.0110 ; qtot   -1.590
        21           c20bf         1   UNL       c20        21    -0.08895       12.0110 ; qtot   -1.679
        22           c21bf         1   UNL       c21        22    -0.08895       12.0110 ; qtot   -1.768
        23           c22bf         1   UNL       c22        23    -0.07642       12.0110 ; qtot   -1.844
        24           c23bf         1   UNL       c23        24    -0.11750       12.0110 ; qtot   -1.962
        25           c24bf         1   UNL       c24        25    -0.08334       12.0110 ; qtot   -2.045
        26           c25bf         1   UNL       c25        26    -0.04035       12.0110 ; qtot   -2.085
        27           c26bf         1   UNL       c26        27     0.00432       12.0110 ; qtot   -2.081
        28           c27bf         1   UNL       c27        28    -0.09152       12.0110 ; qtot   -2.173
        29           c28bf         1   UNL       c28        29    -0.10617       12.0110 ; qtot   -2.279
        30           c29bf         1   UNL       c29        30    -0.10432       12.0110 ; qtot   -2.383
        31           c30bf         1   UNL       c30        31     0.13885       12.0110 ; qtot   -2.244
        32           c31bf         1   UNL       c31        32     0.12896       12.0110 ; qtot   -2.115
        33           c32bf         1   UNL       c32        33    -0.09517       12.0110 ; qtot   -2.211
        34           c33bf         1   UNL       c33        34    -0.09375       12.0110 ; qtot   -2.304
        35           c34bf         1   UNL       c34        35     0.11990       12.0110 ; qtot   -2.184
        36           c35bf         1   UNL       c35        36     0.11403       12.0110 ; qtot   -2.070
        37           c36bf         1   UNL       c36        37     0.38984       12.0110 ; qtot   -1.681
        38           c37bf         1   UNL       c37        38    -0.09487       12.0110 ; qtot   -1.775
        39           c38bf         1   UNL       c38        39     0.14374       12.0110 ; qtot   -1.632
        40           c39bf         1   UNL       c39        40     0.14374       12.0110 ; qtot   -1.488
        41          cl40bf         1   UNL      cl40        41    -0.20463       35.4530 ; qtot   -1.693
        42           f41bf         1   UNL       f41        42    -0.14733       18.9980 ; qtot   -1.840
        43           h42bf         1   UNL       h42        43     0.11879        1.0080 ; qtot   -1.721
        44           h43bf         1   UNL       h43        44     0.03299        1.0080 ; qtot   -1.688
        45           h44bf         1   UNL       h44        45     0.51984        1.0080 ; qtot   -1.168
        46           h45bf         1   UNL       h45        46     0.09014        1.0080 ; qtot   -1.078
        47           h46bf         1   UNL       h46        47     0.09014        1.0080 ; qtot   -0.988
        48           h47bf         1   UNL       h47        48     0.09494        1.0080 ; qtot   -0.893
        49           h48bf         1   UNL       h48        49     0.09494        1.0080 ; qtot   -0.798
        50           h49bf         1   UNL       h49        50     0.12104        1.0080 ; qtot   -0.677
        51           h50bf         1   UNL       h50        51     0.12104        1.0080 ; qtot   -0.556
        52           h51bf         1   UNL       h51        52     0.09494        1.0080 ; qtot   -0.461
        53           h52bf         1   UNL       h52        53     0.09494        1.0080 ; qtot   -0.366
        54           h53bf         1   UNL       h53        54     0.09222        1.0080 ; qtot   -0.274
        55           h54bf         1   UNL       h54        55     0.09222        1.0080 ; qtot   -0.182
        56           h55bf         1   UNL       h55        56     0.09222        1.0080 ; qtot   -0.089
        57           h56bf         1   UNL       h56        57     0.09222        1.0080 ; qtot    0.003
        58           h57bf         1   UNL       h57        58     0.12482        1.0080 ; qtot    0.128
        59           h58bf         1   UNL       h58        59     0.11895        1.0080 ; qtot    0.247
        60           h59bf         1   UNL       h59        60     0.11977        1.0080 ; qtot    0.366
        61           h60bf         1   UNL       h60        61     0.12255        1.0080 ; qtot    0.489
        62           h61bf         1   UNL       h61        62     0.09531        1.0080 ; qtot    0.584
        63           h62bf         1   UNL       h62        63     0.09531        1.0080 ; qtot    0.679
        64           h63bf         1   UNL       h63        64     0.08953        1.0080 ; qtot    0.769
        65           h64bf         1   UNL       h64        65     0.10429        1.0080 ; qtot    0.873
        66           h65bf         1   UNL       h65        66     0.10429        1.0080 ; qtot    0.978
        67           h66bf         1   UNL       h66        67     0.11230        1.0080 ; qtot    1.090
        68           h67bf         1   UNL       h67        68     0.11230        1.0080 ; qtot    1.202
        69           h68bf         1   UNL       h68        69     0.04665        1.0080 ; qtot    1.249
        70           h69bf         1   UNL       h69        70     0.04665        1.0080 ; qtot    1.295
        71           h70bf         1   UNL       h70        71     0.10573        1.0080 ; qtot    1.401
        72           h71bf         1   UNL       h71        72     0.10573        1.0080 ; qtot    1.507
        73           h72bf         1   UNL       h72        73     0.08953        1.0080 ; qtot    1.596
        74           h73bf         1   UNL       h73        74     0.51984        1.0080 ; qtot    2.116
        75           h74bf         1   UNL       h74        75     0.51095        1.0080 ; qtot    2.627
        76           h75bf         1   UNL       h75        76     0.13132        1.0080 ; qtot    2.759
        77           h76bf         1   UNL       h76        77     0.04665        1.0080 ; qtot    2.805
        78           h77bf         1   UNL       h77        78     0.04665        1.0080 ; qtot    2.852
        79           h78bf         1   UNL       h78        79     0.04665        1.0080 ; qtot    2.899
        80           h79bf         1   UNL       h79        80     0.04665        1.0080 ; qtot    2.945
        81           o80bf         1   UNL       o80        81    -0.47259       15.9990 ; qtot    2.473
        82           o81bf         1   UNL       o81        82    -0.47258       15.9990 ; qtot    2.000

[ bonds ]
;       ai        aj funct               r               k
         1         4     1        0.142351   252679.712256
         1         8     1        0.143822   227380.327832
         1        10     1        0.141682   262744.780859
         2         4     1        0.135874   295266.289648
         2         6     1        0.131250   349439.104639
         3         6     1        0.136281   239610.892236
         3        16     1        0.143141   191308.458569
         4        14     1        0.141417   264484.496436
         5         6     1        0.134328   270149.980762
         5         8     1        0.132178   353485.944824
         7        10     1        0.131821   376153.653516
         7        12     1        0.136003   259214.377637
         8         9     1        0.140901   232824.507568
         9        17     1        0.146948   183317.692749
         9        20     1        0.146948   183317.692749
        10        44     1        0.108667   316685.335840
        11        18     1        0.152806   112905.191479
        11        19     1        0.152806   112905.191479
        11        45     1        0.102639   386120.761768
        11        74     1        0.102639   386120.761768
        12        14     1        0.138449   297824.929248
        12        15     1        0.149070   209427.420728
        13        32     1        0.154616    76924.489697
        13        35     1        0.151916   120904.882520
        13        36     1        0.150949   130768.156885
        13        75     1        0.102666   378479.318066
        14        42     1        0.134924   301418.562354
        15        23     1        0.138394   331227.493848
        15        27     1        0.143669   233644.682910
        16        32     1        0.153319   173470.315234
        16        46     1        0.109271   303659.724609
        16        47     1        0.109271   303659.724609
        17        18     1        0.153876   169198.556958
        17        48     1        0.109342   300785.701709
        17        49     1        0.109342   300785.701709
        18        22     1        0.153955   164525.878833
        18        50     1        0.109058   317545.502295
        19        20     1        0.153876   169198.544189
        19        21     1        0.153955   164525.866064
        19        51     1        0.109058   317545.502295
        20        52     1        0.109342   300785.701709
        20        53     1        0.109342   300785.701709
        21        22     1        0.155779   153880.224048
        21        54     1        0.109165   310874.034619
        21        55     1        0.109165   310874.034619
        22        56     1        0.109165   310874.034619
        22        57     1        0.109165   310874.034619
        23        24     1        0.141121   287199.908447
        23        58     1        0.108493   322010.742480
        24        25     1        0.137526   363953.452734
        24        43     1        0.108622   319800.709961
        25        26     1        0.142045   273928.808984
        25        59     1        0.108594   319344.872559
        26        27     1        0.144434   224502.142383
        26        28     1        0.142036   273931.464844
        27        31     1        0.143304   230613.581250
        28        29     1        0.137489   366314.843701
        28        60     1        0.108574   319836.947119
        29        30     1        0.141127   284490.957422
        29        61     1        0.108580   321786.245752
        30        31     1        0.138272   329221.860352
        30        76     1        0.108447   324123.197705
        31        41     1        0.176236   138563.704272
        32        33     1        0.153957   159040.175757
        32        38     1        0.153742   161172.996826
        33        34     1        0.154690   165778.052686
        33        62     1        0.109185   309615.157275
        33        63     1        0.109185   309615.182812
        34        35     1        0.154119   167608.463306
        34        64     1        0.109137   312886.588672
        34        73     1        0.109137   312886.588672
        35        65     1        0.109009   315019.167139
        35        66     1        0.109009   315019.167139
        36        37     1        0.154914   148004.109644
        36        67     1        0.108982   314715.913965
        36        68     1        0.108982   314715.913965
        37        38     1        0.154996   149552.028760
        37        81     1        0.140784   194209.512500
        37        82     1        0.140784   194209.486963
        38        71     1        0.109138   310123.856494
        38        72     1        0.109138   310123.856494
        39        69     1        0.109344   300203.174707
        39        77     1        0.109344   300203.174707
        39        78     1        0.109344   300203.174707
        39        81     1        0.143756   195951.041211
        40        70     1        0.109344   300203.174707
        40        79     1        0.109344   300203.174707
        40        80     1        0.109344   300203.174707
        40        82     1        0.143756   195951.041211

[ angles ]
;       ai        aj        ak funct           theta             cth
         1         4         2     1      123.109451      750.938748
         1         4        14     1      116.586258      705.646514
         1         8         5     1      120.872849      576.881066
         1         8         9     1      121.465836      413.946200
         1        10         7     1      124.063927      615.128889
         1        10        44     1      120.299706      403.858308
         2         4        14     1      120.251244      365.502847
         2         6         3     1      116.353943      505.498238
         2         6         5     1      128.384598      623.368373
         3         6         5     1      114.447853      505.929528
         3        16        32     1      107.535828      573.714018
         3        16        46     1      109.441345      450.078114
         3        16        47     1      109.441345      450.078114
         4         1         8     1      115.028336      913.148679
         4         1        10     1      117.458351      814.165119
         4         2         6     1      115.318275      457.022995
         4        14        12     1      121.414879      630.452687
         4        14        42     1      117.710228      470.978674
         5         8         9     1      117.327171      560.382434
         6         3        16     1      117.567703      529.864886
         6         5         8     1      117.677528      860.031811
         7        10        44     1      116.178848      382.026250
         7        12        14     1      120.714943      652.162230
         7        12        15     1      116.977196      537.710524
         8         1        10     1      126.882797      516.944130
         8         9        17     1      116.649673      545.542373
         8         9        20     1      116.649673      545.542373
         9        17        18     1      110.414001      573.649664
         9        17        48     1      109.994041      435.580952
         9        17        49     1      109.994041      435.580952
         9        20        19     1      110.414001      573.649664
         9        20        52     1      109.994041      435.580952
         9        20        53     1      109.994041      435.580952
        10         7        12     1      119.386574      623.357903
        11        18        17     1      106.602722      674.110546
        11        18        22     1      101.418633      536.716875
        11        18        50     1      108.498741      494.510641
        11        19        20     1      106.602722      674.110546
        11        19        21     1      101.418633      536.716875
        11        19        51     1      108.498741      494.510641
        12        14        42     1      120.043236      449.199956
        12        15        23     1      116.217453      557.979583
        12        15        27     1      124.048660      408.237603
        13        32        16     1      108.828629      647.136399
        13        32        33     1      102.210442      485.024882
        13        32        38     1      102.024315      513.340173
        13        35        34     1      103.657227      527.432316
        13        35        65     1      108.272682      503.273190
        13        35        66     1      108.272682      503.273190
        13        36        37     1      103.419533      495.089791
        13        36        67     1      109.284828      502.864692
        13        36        68     1      109.284828      502.864692
        14        12        15     1      121.062279      435.082819
        15        23        24     1      121.654984      675.425132
        15        23        58     1      118.654823      416.715604
        15        27        26     1      117.328392      737.310359
        15        27        31     1      126.635841      381.112405
        16        32        33     1      112.726173      558.398392
        16        32        38     1      112.523972      550.150863
        17         9        20     1      112.989647      531.622350
        17        18        22     1      113.199745      580.112915
        17        18        50     1      110.856812      458.517267
        18        11        19     1      101.779678      586.160996
        18        11        45     1      111.672134      452.606639
        18        11        74     1      111.672134      452.606639
        18        17        48     1      109.425522      473.224279
        18        17        49     1      109.425522      473.224279
        18        22        21     1      105.201950      510.005282
        18        22        56     1      110.206017      481.946958
        18        22        57     1      110.206017      481.946958
        19        11        45     1      111.672134      452.606639
        19        11        74     1      111.672134      452.606639
        19        20        52     1      109.425522      473.224279
        19        20        53     1      109.425522      473.224279
        19        21        22     1      105.201950      510.005282
        19        21        54     1      110.206017      481.946958
        19        21        55     1      110.206017      481.946958
        20        19        21     1      113.199745      580.112915
        20        19        51     1      110.856812      458.517267
        21        19        51     1      114.036781      411.209708
        21        22        56     1      111.675735      437.142355
        21        22        57     1      111.675735      437.142355
        22        18        50     1      114.036781      411.209708
        22        21        54     1      111.675735      437.142355
        22        21        55     1      111.675735      437.142355
        23        15        27     1      119.662170      565.688215
        23        24        25     1      119.426170      731.500794
        23        24        43     1      119.758034      445.846966
        24        23        58     1      119.660767      432.382940
        24        25        26     1      120.709641      598.299168
        24        25        59     1      120.624916      433.764051
        25        24        43     1      120.655106      450.086860
        25        26        27     1      120.116196      721.016278
        25        26        28     1      119.102341      429.174170
        26        25        59     1      118.637245      431.327970
        26        27        31     1      115.716965      716.901420
        26        28        29     1      120.847733      590.748994
        26        28        60     1      118.628769      430.825496
        27        26        28     1      120.269531      720.049252
        27        31        30     1      121.871254      575.719575
        27        31        41     1      122.946487      352.250172
        28        29        30     1      119.581627      695.975419
        28        29        61     1      120.793457      442.644166
        29        28        60     1      120.548401      440.938095
        29        30        31     1      120.724182      617.232444
        29        30        76     1      120.186096      438.743117
        30        29        61     1      119.382706      447.696491
        30        31        41     1      114.380447      390.454741
        31        30        76     1      119.156784      404.384787
        32        13        35     1      107.674904      493.570078
        32        13        36     1      106.720627      517.836652
        32        13        75     1      106.706581      451.791462
        32        16        46     1      110.245316      460.917946
        32        16        47     1      110.245316      460.917946
        32        33        34     1      104.820473      498.365181
        32        33        62     1      110.547134      470.763939
        32        33        63     1      110.547134      470.763939
        32        38        37     1      105.451378      591.982819
        32        38        71     1      111.163193      471.331884
        32        38        72     1      111.163193      471.331884
        33        32        38     1      118.014938      454.832677
        33        34        35     1      104.777603      512.251495
        33        34        64     1      111.604286      467.711232
        33        34        73     1      111.604286      467.711232
        34        33        62     1      111.619614      464.200806
        34        33        63     1      111.619614      464.200806
        34        35        65     1      113.689919      427.478889
        34        35        66     1      113.689919      427.478889
        35        13        36     1      119.080849      479.998987
        35        13        75     1      107.932571      461.323188
        35        34        64     1      110.733093      474.472661
        35        34        73     1      110.733093      474.472661
        36        13        75     1      107.436646      473.345038
        36        37        38     1      103.659386      426.740484
        36        37        81     1      107.878929      529.901085
        36        37        82     1      107.878929      529.901085
        37        36        67     1      111.967567      447.872889
        37        36        68     1      111.967567      447.872889
        37        38        71     1      109.986107      490.834127
        37        38        72     1      109.986107      490.834127
        37        81        39     1      116.559311      568.674652
        37        82        40     1      116.559311      568.674652
        38        37        81     1      110.769753      549.684619
        38        37        82     1      110.769753      549.684619
        45        11        74     1      107.850487      393.501765
        46        16        47     1      108.649193      342.474535
        48        17        49     1      107.831497      345.579975
        52        20        53     1      107.831497      345.579975
        54        21        55     1      107.532188      357.637353
        56        22        57     1      107.532188      357.637353
        62        33        63     1      107.479309      360.185414
        64        34        73     1      107.379738      358.405318
        65        35        66     1      108.992355      348.323171
        67        36        68     1      109.862244      345.498001
        69        39        77     1      109.439560      345.183990
        69        39        78     1      109.439560      345.183990
        69        39        81     1      109.378006      455.924037
        70        40        79     1      109.439560      345.183990
        70        40        80     1      109.439560      345.183990
        70        40        82     1      109.378006      455.924037
        71        38        72     1      107.928421      360.247597
        77        39        78     1      109.439560      345.183990
        77        39        81     1      109.378006      455.924037
        78        39        81     1      109.378006      455.924037
        79        40        80     1      109.439560      345.183990
        79        40        82     1      109.378006      455.924037
        80        40        82     1      109.378006      455.924037
        81        37        82     1      112.011620      618.491807

[ dihedrals ] ; propers for gromacs 4.5 or higher, use funct 9
;       ai        aj        ak        al funct           phase               k        pn
         1         4         2         6     9        0.000000       -0.295850         1
         1         4         2         6     9      180.000000       13.544450         2
         1         4         2         6     9        0.000000       -0.482072         3
         1         4         2         6     9      180.000000       -0.373165         4
         1         4        14        12     9        0.000000       -0.158434         1
         1         4        14        12     9      180.000000       11.922141         2
         1         4        14        12     9        0.000000       -0.960135         3
         1         4        14        12     9      180.000000       -0.093267         4
         1         4        14        42     9        0.000000        0.318053         1
         1         4        14        42     9      180.000000       18.653661         2
         1         4        14        42     9        0.000000        0.172680         3
         1         4        14        42     9      180.000000       -0.580667         4
         1         8         5         6     9        0.000000        0.225022         1
         1         8         5         6     9      180.000000       18.721847         2
         1         8         5         6     9        0.000000       -0.984817         3
         1         8         5         6     9      180.000000       -0.497124         4
         1         8         9        17     9        0.000000        5.434533         1
         1         8         9        17     9      180.000000        7.654269         2
         1         8         9        17     9        0.000000       -0.102297         3
         1         8         9        17     9      180.000000        0.277433         4
         1         8         9        20     9        0.000000        5.434533         1
         1         8         9        20     9      180.000000        7.654269         2
         1         8         9        20     9        0.000000       -0.102297         3
         1         8         9        20     9      180.000000        0.277433         4
         1        10         7        12     9        0.000000       -0.168242         1
         1        10         7        12     9      180.000000       24.831433         2
         1        10         7        12     9        0.000000       -0.956051         3
         1        10         7        12     9      180.000000       -0.144741         4
         2         4         1         8     9        0.000000       -0.468370         1
         2         4         1         8     9      180.000000       12.186483         2
         2         4         1         8     9        0.000000       -0.665624         3
         2         4         1         8     9      180.000000       -0.336122         4
         2         4         1        10     9        0.000000       -0.018610         1
         2         4         1        10     9      180.000000       11.578075         2
         2         4         1        10     9        0.000000       -0.132910         3
         2         4         1        10     9      180.000000       -0.303325         4
         2         4        14        12     9        0.000000        0.534066         1
         2         4        14        12     9      180.000000       11.163747         2
         2         4        14        12     9        0.000000        0.374255         3
         2         4        14        12     9      180.000000       -0.332327         4
         2         4        14        42     9        0.000000        0.226307         1
         2         4        14        42     9      180.000000       19.062201         2
         2         4        14        42     9        0.000000        0.282178         3
         2         4        14        42     9      180.000000       -0.647120         4
         2         6         3        16     9        0.000000       -1.169590         1
         2         6         3        16     9      180.000000        7.655014         2
         2         6         3        16     9        0.000000       -0.014729         3
         2         6         3        16     9      180.000000       -0.089889         4
         2         6         5         8     9        0.000000        0.660531         1
         2         6         5         8     9      180.000000       10.715258         2
         2         6         5         8     9        0.000000        0.263610         3
         2         6         5         8     9      180.000000       -0.480731         4
         3         6         2         4     9        0.000000        0.181884         1
         3         6         2         4     9      180.000000       26.535122         2
         3         6         2         4     9        0.000000        1.061715         3
         3         6         2         4     9      180.000000       -1.654382         4
         3         6         5         8     9        0.000000        0.307543         1
         3         6         5         8     9      180.000000       19.335911         2
         3         6         5         8     9        0.000000        0.634016         3
         3         6         5         8     9      180.000000       -0.940958         4
         3        16        32        13     9        0.000000        8.796223         1
         3        16        32        13     9      180.000000       -3.775295         2
         3        16        32        13     9        0.000000        0.530915         3
         3        16        32        13     9      180.000000        0.399223         4
         3        16        32        33     9        0.000000        0.357642         1
         3        16        32        33     9      180.000000        0.658739         2
         3        16        32        33     9        0.000000        0.660292         3
         3        16        32        33     9      180.000000       -0.009538         4
         3        16        32        38     9        0.000000        0.878122         1
         3        16        32        38     9      180.000000        0.599301         2
         3        16        32        38     9        0.000000        0.658248         3
         3        16        32        38     9      180.000000       -0.020735         4
         4         1         8         5     9        0.000000       -0.528114         1
         4         1         8         5     9      180.000000        6.708900         2
         4         1         8         5     9        0.000000       -0.031090         3
         4         1         8         5     9      180.000000       -0.300154         4
         4         1         8         9     9        0.000000        0.405994         1
         4         1         8         9     9      180.000000       11.105957         2
         4         1         8         9     9        0.000000        0.610926         3
         4         1         8         9     9      180.000000       -0.512438         4
         4         1        10         7     9        0.000000       -0.042493         1
         4         1        10         7     9      180.000000       13.807455         2
         4         1        10         7     9        0.000000       -0.604006         3
         4         1        10         7     9      180.000000       -0.367502         4
         4         1        10        44     9        0.000000       -0.015181         1
         4         1        10        44     9      180.000000       11.648420         2
         4         1        10        44     9        0.000000       -0.266142         3
         4         1        10        44     9      180.000000       -0.160707         4
         4         2         6         5     9        0.000000        0.229447         1
         4         2         6         5     9      180.000000       15.359045         2
         4         2         6         5     9        0.000000        0.791689         3
         4         2         6         5     9      180.000000       -0.763128         4
         4        14        12         7     9        0.000000       -0.175919         1
         4        14        12         7     9      180.000000       13.349261         2
         4        14        12         7     9        0.000000       -0.335288         3
         4        14        12         7     9      180.000000       -0.388056         4
         4        14        12        15     9        0.000000        0.188043         1
         4        14        12        15     9      180.000000       14.880322         2
         4        14        12        15     9        0.000000        0.089132         3
         4        14        12        15     9      180.000000       -0.638855         4
         5         6         3        16     9        0.000000        0.555716         1
         5         6         3        16     9      180.000000        7.157737         2
         5         6         3        16     9        0.000000        0.284956         3
         5         6         3        16     9      180.000000       -0.079701         4
         5         8         1        10     9        0.000000       -0.996952         1
         5         8         1        10     9      180.000000        4.801242         2
         5         8         1        10     9        0.000000       -0.252600         3
         5         8         1        10     9      180.000000       -0.286416         4
         5         8         9        17     9        0.000000       -1.227826         1
         5         8         9        17     9      180.000000        9.662345         2
         5         8         9        17     9        0.000000       -0.205593         3
         5         8         9        17     9      180.000000        0.178658         4
         5         8         9        20     9        0.000000       -1.227826         1
         5         8         9        20     9      180.000000        9.662345         2
         5         8         9        20     9        0.000000       -0.205593         3
         5         8         9        20     9      180.000000        0.178658         4
         6         2         4        14     9        0.000000       -0.306172         1
         6         2         4        14     9      180.000000       13.623295         2
         6         2         4        14     9        0.000000       -0.059620         3
         6         2         4        14     9      180.000000       -0.321551         4
         6         3        16        32     9        0.000000       -7.648004         1
         6         3        16        32     9      180.000000       -1.434873         2
         6         3        16        32     9        0.000000        0.158369         3
         6         3        16        32     9      180.000000        0.005118         4
         6         3        16        46     9        0.000000        0.365553         1
         6         3        16        46     9      180.000000        0.262263         2
         6         3        16        46     9        0.000000        0.257986         3
         6         3        16        46     9      180.000000        0.114544         4
         6         3        16        47     9        0.000000        0.365553         1
         6         3        16        47     9      180.000000        0.262263         2
         6         3        16        47     9        0.000000        0.257986         3
         6         3        16        47     9      180.000000        0.114544         4
         6         5         8         9     9        0.000000        0.184154         1
         6         5         8         9     9      180.000000       24.542966         2
         6         5         8         9     9        0.000000        0.122818         3
         6         5         8         9     9      180.000000       -1.084633         4
         7        10         1         8     9        0.000000       -0.911213         1
         7        10         1         8     9      180.000000       11.023641         2
         7        10         1         8     9        0.000000       -0.333461         3
         7        10         1         8     9      180.000000       -0.281768         4
         7        12        14        42     9        0.000000       -0.039429         1
         7        12        14        42     9      180.000000       21.701918         2
         7        12        14        42     9        0.000000        0.216979         3
         7        12        14        42     9      180.000000       -1.101919         4
         7        12        15        23     9        0.000000        1.535337         1
         7        12        15        23     9      180.000000        3.863777         2
         7        12        15        23     9        0.000000       -0.273889         3
         7        12        15        23     9      180.000000        0.367034         4
         7        12        15        27     9        0.000000       -2.406343         1
         7        12        15        27     9      180.000000        4.595827         2
         7        12        15        27     9        0.000000        0.723385         3
         7        12        15        27     9      180.000000       -0.187988         4
         8         1         4        14     9        0.000000       -0.875673         1
         8         1         4        14     9      180.000000       12.069203         2
         8         1         4        14     9        0.000000       -1.665482         3
         8         1         4        14     9      180.000000       -0.248650         4
         8         1        10        44     9        0.000000       -0.135678         1
         8         1        10        44     9      180.000000        9.858751         2
         8         1        10        44     9        0.000000       -0.358959         3
         8         1        10        44     9      180.000000       -0.032663         4
         8         9        17        18     9        0.000000       -3.160918         1
         8         9        17        18     9      180.000000       -0.589006         2
         8         9        17        18     9        0.000000        0.354310         3
         8         9        17        18     9      180.000000       -0.069445         4
         8         9        17        48     9        0.000000        0.010062         1
         8         9        17        48     9      180.000000        0.194484         2
         8         9        17        48     9        0.000000        0.191535         3
         8         9        17        48     9      180.000000        0.106044         4
         8         9        17        49     9        0.000000        0.010062         1
         8         9        17        49     9      180.000000        0.194484         2
         8         9        17        49     9        0.000000        0.191535         3
         8         9        17        49     9      180.000000        0.106044         4
         8         9        20        19     9        0.000000       -3.160918         1
         8         9        20        19     9      180.000000       -0.589006         2
         8         9        20        19     9        0.000000        0.354310         3
         8         9        20        19     9      180.000000       -0.069445         4
         8         9        20        52     9        0.000000        0.010062         1
         8         9        20        52     9      180.000000        0.194484         2
         8         9        20        52     9        0.000000        0.191535         3
         8         9        20        52     9      180.000000        0.106044         4
         8         9        20        53     9        0.000000        0.010062         1
         8         9        20        53     9      180.000000        0.194484         2
         8         9        20        53     9        0.000000        0.191535         3
         8         9        20        53     9      180.000000        0.106044         4
         9         8         1        10     9        0.000000        0.592968         1
         9         8         1        10     9      180.000000        8.539503         2
         9         8         1        10     9        0.000000        0.493115         3
         9         8         1        10     9      180.000000       -0.486278         4
         9        17        18        11     9        0.000000       10.360260         1
         9        17        18        11     9      180.000000       -0.455638         2
         9        17        18        11     9        0.000000        1.252755         3
         9        17        18        11     9      180.000000       -0.383471         4
         9        17        18        22     9        0.000000        8.665241         1
         9        17        18        22     9      180.000000        3.003229         2
         9        17        18        22     9        0.000000        1.172798         3
         9        17        18        22     9      180.000000       -0.235254         4
         9        17        18        50     9        0.000000        0.208834         1
         9        17        18        50     9      180.000000       -1.298774         2
         9        17        18        50     9        0.000000        0.789454         3
         9        17        18        50     9      180.000000        0.143387         4
         9        20        19        11     9        0.000000       10.360260         1
         9        20        19        11     9      180.000000       -0.455638         2
         9        20        19        11     9        0.000000        1.252755         3
         9        20        19        11     9      180.000000       -0.383471         4
         9        20        19        21     9        0.000000        8.665241         1
         9        20        19        21     9      180.000000        3.003229         2
         9        20        19        21     9        0.000000        1.172798         3
         9        20        19        21     9      180.000000       -0.235254         4
         9        20        19        51     9        0.000000        0.208834         1
         9        20        19        51     9      180.000000       -1.298774         2
         9        20        19        51     9        0.000000        0.789454         3
         9        20        19        51     9      180.000000        0.143387         4
        10         1         4        14     9        0.000000       -0.329036         1
        10         1         4        14     9      180.000000       10.718689         2
        10         1         4        14     9        0.000000       -1.144445         3
        10         1         4        14     9      180.000000       -0.069498         4
        10         7        12        14     9        0.000000       -0.176065         1
        10         7        12        14     9      180.000000       19.211771         2
        10         7        12        14     9        0.000000        0.107916         3
        10         7        12        14     9      180.000000       -0.109287         4
        10         7        12        15     9        0.000000        0.285986         1
        10         7        12        15     9      180.000000       22.985669         2
        10         7        12        15     9        0.000000        1.194422         3
        10         7        12        15     9      180.000000       -1.028195         4
        11        18        17        48     9        0.000000       -0.109134         1
        11        18        17        48     9      180.000000        0.138444         2
        11        18        17        48     9        0.000000        0.755957         3
        11        18        17        48     9      180.000000       -0.087097         4
        11        18        17        49     9        0.000000       -0.109134         1
        11        18        17        49     9      180.000000        0.138444         2
        11        18        17        49     9        0.000000        0.755957         3
        11        18        17        49     9      180.000000       -0.087097         4
        11        18        22        21     9        0.000000       -6.720876         1
        11        18        22        21     9      180.000000       11.285324         2
        11        18        22        21     9        0.000000        0.310730         3
        11        18        22        21     9      180.000000       -2.781275         4
        11        18        22        56     9        0.000000       -0.566248         1
        11        18        22        56     9      180.000000        0.138173         2
        11        18        22        56     9        0.000000        0.237111         3
        11        18        22        56     9      180.000000       -0.093241         4
        11        18        22        57     9        0.000000       -0.566248         1
        11        18        22        57     9      180.000000        0.138173         2
        11        18        22        57     9        0.000000        0.237111         3
        11        18        22        57     9      180.000000       -0.093241         4
        11        19        20        52     9        0.000000       -0.109134         1
        11        19        20        52     9      180.000000        0.138444         2
        11        19        20        52     9        0.000000        0.755957         3
        11        19        20        52     9      180.000000       -0.087097         4
        11        19        20        53     9        0.000000       -0.109134         1
        11        19        20        53     9      180.000000        0.138444         2
        11        19        20        53     9        0.000000        0.755957         3
        11        19        20        53     9      180.000000       -0.087097         4
        11        19        21        22     9        0.000000       -6.720876         1
        11        19        21        22     9      180.000000       11.285324         2
        11        19        21        22     9        0.000000        0.310730         3
        11        19        21        22     9      180.000000       -2.781275         4
        11        19        21        54     9        0.000000       -0.566248         1
        11        19        21        54     9      180.000000        0.138173         2
        11        19        21        54     9        0.000000        0.237111         3
        11        19        21        54     9      180.000000       -0.093241         4
        11        19        21        55     9        0.000000       -0.566248         1
        11        19        21        55     9      180.000000        0.138173         2
        11        19        21        55     9        0.000000        0.237111         3
        11        19        21        55     9      180.000000       -0.093241         4
        12         7        10        44     9        0.000000        0.806796         1
        12         7        10        44     9      180.000000       22.879804         2
        12         7        10        44     9        0.000000        0.224013         3
        12         7        10        44     9      180.000000       -0.316141         4
        12        15        23        24     9        0.000000        0.070742         1
        12        15        23        24     9      180.000000       20.539082         2
        12        15        23        24     9        0.000000       -0.087482         3
        12        15        23        24     9      180.000000       -0.899276         4
        12        15        23        58     9        0.000000       -0.197354         1
        12        15        23        58     9      180.000000       14.860855         2
        12        15        23        58     9        0.000000       -0.378307         3
        12        15        23        58     9      180.000000       -0.017830         4
        12        15        27        26     9        0.000000       -0.226566         1
        12        15        27        26     9      180.000000        6.825278         2
        12        15        27        26     9        0.000000       -0.284866         3
        12        15        27        26     9      180.000000       -0.327605         4
        12        15        27        31     9        0.000000       -0.306924         1
        12        15        27        31     9      180.000000        6.181450         2
        12        15        27        31     9        0.000000        0.364296         3
        12        15        27        31     9      180.000000       -0.550865         4
        13        32        16        46     9        0.000000       -0.137543         1
        13        32        16        46     9      180.000000       -0.087335         2
        13        32        16        46     9        0.000000        0.646619         3
        13        32        16        46     9      180.000000       -0.015363         4
        13        32        16        47     9        0.000000       -0.137543         1
        13        32        16        47     9      180.000000       -0.087335         2
        13        32        16        47     9        0.000000        0.646619         3
        13        32        16        47     9      180.000000       -0.015363         4
        13        32        33        34     9        0.000000       -1.826009         1
        13        32        33        34     9      180.000000        7.353344         2
        13        32        33        34     9        0.000000       -0.186776         3
        13        32        33        34     9      180.000000       -2.366859         4
        13        32        33        62     9        0.000000        0.128374         1
        13        32        33        62     9      180.000000       -0.512506         2
        13        32        33        62     9        0.000000        0.111240         3
        13        32        33        62     9      180.000000        0.060214         4
        13        32        33        63     9        0.000000        0.128374         1
        13        32        33        63     9      180.000000       -0.512506         2
        13        32        33        63     9        0.000000        0.111240         3
        13        32        33        63     9      180.000000        0.060214         4
        13        32        38        37     9        0.000000       -1.590150         1
        13        32        38        37     9      180.000000        5.454145         2
        13        32        38        37     9        0.000000       -0.252983         3
        13        32        38        37     9      180.000000       -1.338795         4
        13        32        38        71     9        0.000000        0.136539         1
        13        32        38        71     9      180.000000       -0.663679         2
        13        32        38        71     9        0.000000        0.074066         3
        13        32        38        71     9      180.000000        0.200410         4
        13        32        38        72     9        0.000000        0.136539         1
        13        32        38        72     9      180.000000       -0.663679         2
        13        32        38        72     9        0.000000        0.074066         3
        13        32        38        72     9      180.000000        0.200410         4
        13        35        34        33     9        0.000000        0.379919         1
        13        35        34        33     9      180.000000        4.374177         2
        13        35        34        33     9        0.000000        0.121747         3
        13        35        34        33     9      180.000000       -2.324467         4
        13        35        34        64     9        0.000000       -0.001671         1
        13        35        34        64     9      180.000000       -0.015465         2
        13        35        34        64     9        0.000000        0.205990         3
        13        35        34        64     9      180.000000        0.081685         4
        13        35        34        73     9        0.000000       -0.001671         1
        13        35        34        73     9      180.000000       -0.015465         2
        13        35        34        73     9        0.000000        0.205990         3
        13        35        34        73     9      180.000000        0.081685         4
        13        36        37        38     9        0.000000       -1.830364         1
        13        36        37        38     9      180.000000        6.994238         2
        13        36        37        38     9        0.000000        0.051064         3
        13        36        37        38     9      180.000000       -2.498846         4
        13        36        37        81     9        0.000000        1.177299         1
        13        36        37        81     9      180.000000        0.020352         2
        13        36        37        81     9        0.000000        0.543237         3
        13        36        37        81     9      180.000000        0.244584         4
        13        36        37        82     9        0.000000        1.177299         1
        13        36        37        82     9      180.000000        0.020352         2
        13        36        37        82     9        0.000000        0.543237         3
        13        36        37        82     9      180.000000        0.244584         4
        14        12        15        23     9        0.000000       -0.076271         1
        14        12        15        23     9      180.000000        4.354977         2
        14        12        15        23     9        0.000000        0.125257         3
        14        12        15        23     9      180.000000        0.374552         4
        14        12        15        27     9        0.000000        0.338784         1
        14        12        15        27     9      180.000000        3.807911         2
        14        12        15        27     9        0.000000        0.633302         3
        14        12        15        27     9      180.000000       -0.061655         4
        15        12        14        42     9        0.000000       -0.064518         1
        15        12        14        42     9      180.000000       21.640280         2
        15        12        14        42     9        0.000000        0.556971         3
        15        12        14        42     9      180.000000       -1.427715         4
        15        23        24        25     9        0.000000       -0.090151         1
        15        23        24        25     9      180.000000       16.448832         2
        15        23        24        25     9        0.000000       -1.396368         3
        15        23        24        25     9      180.000000       -0.407439         4
        15        23        24        43     9        0.000000       -0.204895         1
        15        23        24        43     9      180.000000       13.405392         2
        15        23        24        43     9        0.000000       -0.723037         3
        15        23        24        43     9      180.000000       -0.071498         4
        15        27        26        25     9        0.000000        0.294186         1
        15        27        26        25     9      180.000000       11.327656         2
        15        27        26        25     9        0.000000       -0.322149         3
        15        27        26        25     9      180.000000       -0.197336         4
        15        27        26        28     9        0.000000        0.302869         1
        15        27        26        28     9      180.000000       11.281068         2
        15        27        26        28     9        0.000000       -0.307635         3
        15        27        26        28     9      180.000000       -0.193328         4
        15        27        31        30     9        0.000000       -0.173565         1
        15        27        31        30     9      180.000000        8.256534         2
        15        27        31        30     9        0.000000       -0.181158         3
        15        27        31        30     9      180.000000       -0.461483         4
        15        27        31        41     9        0.000000       -0.773052         1
        15        27        31        41     9      180.000000        9.890967         2
        15        27        31        41     9        0.000000        0.302735         3
        15        27        31        41     9      180.000000       -0.912459         4
        16        32        13        35     9        0.000000        2.639063         1
        16        32        13        35     9      180.000000       -0.060529         2
        16        32        13        35     9        0.000000        0.340639         3
        16        32        13        35     9      180.000000        0.488943         4
        16        32        13        36     9        0.000000        2.048341         1
        16        32        13        36     9      180.000000        0.136418         2
        16        32        13        36     9        0.000000        0.270395         3
        16        32        13        36     9      180.000000        0.507347         4
        16        32        13        75     9        0.000000        4.393658         1
        16        32        13        75     9      180.000000       -2.197388         2
        16        32        13        75     9        0.000000        0.487151         3
        16        32        13        75     9      180.000000        0.277912         4
        16        32        33        34     9        0.000000        0.660737         1
        16        32        33        34     9      180.000000        0.431968         2
        16        32        33        34     9        0.000000        0.315999         3
        16        32        33        34     9      180.000000        0.151477         4
        16        32        33        62     9        0.000000       -0.106741         1
        16        32        33        62     9      180.000000        0.005542         2
        16        32        33        62     9        0.000000        0.384537         3
        16        32        33        62     9      180.000000        0.013797         4
        16        32        33        63     9        0.000000       -0.106741         1
        16        32        33        63     9      180.000000        0.005542         2
        16        32        33        63     9        0.000000        0.384537         3
        16        32        33        63     9      180.000000        0.013797         4
        16        32        38        37     9        0.000000        2.505849         1
        16        32        38        37     9      180.000000        0.184631         2
        16        32        38        37     9        0.000000        0.159111         3
        16        32        38        37     9      180.000000        0.334722         4
        16        32        38        71     9        0.000000       -0.112423         1
        16        32        38        71     9      180.000000        0.089900         2
        16        32        38        71     9        0.000000        0.392621         3
        16        32        38        71     9      180.000000       -0.056872         4
        16        32        38        72     9        0.000000       -0.112423         1
        16        32        38        72     9      180.000000        0.089900         2
        16        32        38        72     9        0.000000        0.392621         3
        16        32        38        72     9      180.000000       -0.056872         4
        17         9        20        19     9        0.000000        3.153127         1
        17         9        20        19     9      180.000000       -3.348937         2
        17         9        20        19     9        0.000000        0.519549         3
        17         9        20        19     9      180.000000        0.090461         4
        17         9        20        52     9        0.000000       -0.428027         1
        17         9        20        52     9      180.000000        0.276117         2
        17         9        20        52     9        0.000000        0.876566         3
        17         9        20        52     9      180.000000       -0.010241         4
        17         9        20        53     9        0.000000       -0.428027         1
        17         9        20        53     9      180.000000        0.276117         2
        17         9        20        53     9        0.000000        0.876566         3
        17         9        20        53     9      180.000000       -0.010241         4
        17        18        11        19     9        0.000000       -0.856050         1
        17        18        11        19     9      180.000000       -3.154670         2
        17        18        11        19     9        0.000000        0.341030         3
        17        18        11        19     9      180.000000       -0.429377         4
        17        18        11        45     9        0.000000        3.791343         1
        17        18        11        45     9      180.000000        0.915306         2
        17        18        11        45     9        0.000000        0.458893         3
        17        18        11        45     9      180.000000        0.414023         4
        17        18        11        74     9        0.000000        3.791343         1
        17        18        11        74     9      180.000000        0.915306         2
        17        18        11        74     9        0.000000        0.458893         3
        17        18        11        74     9      180.000000        0.414023         4
        17        18        22        21     9        0.000000        0.958471         1
        17        18        22        21     9      180.000000        1.828225         2
        17        18        22        21     9        0.000000        0.287884         3
        17        18        22        21     9      180.000000       -0.116139         4
        17        18        22        56     9        0.000000       -0.152771         1
        17        18        22        56     9      180.000000       -0.126016         2
        17        18        22        56     9        0.000000        0.292799         3
        17        18        22        56     9      180.000000        0.022367         4
        17        18        22        57     9        0.000000       -0.152771         1
        17        18        22        57     9      180.000000       -0.126016         2
        17        18        22        57     9        0.000000        0.292799         3
        17        18        22        57     9      180.000000        0.022367         4
        18        11        19        20     9        0.000000       -0.856050         1
        18        11        19        20     9      180.000000       -3.154670         2
        18        11        19        20     9        0.000000        0.341030         3
        18        11        19        20     9      180.000000       -0.429377         4
        18        11        19        21     9        0.000000       -8.011946         1
        18        11        19        21     9      180.000000        8.433476         2
        18        11        19        21     9        0.000000        0.257643         3
        18        11        19        21     9      180.000000       -4.599935         4
        18        11        19        51     9        0.000000       -1.122176         1
        18        11        19        51     9      180.000000       -5.819555         2
        18        11        19        51     9        0.000000        0.140568         3
        18        11        19        51     9      180.000000        0.114692         4
        18        17         9        20     9        0.000000        3.153127         1
        18        17         9        20     9      180.000000       -3.348937         2
        18        17         9        20     9        0.000000        0.519549         3
        18        17         9        20     9      180.000000        0.090461         4
        18        22        21        19     9        0.000000       -0.441188         1
        18        22        21        19     9      180.000000        1.461405         2
        18        22        21        19     9        0.000000        0.090585         3
        18        22        21        19     9      180.000000       -1.237684         4
        18        22        21        54     9        0.000000       -0.040956         1
        18        22        21        54     9      180.000000       -0.134546         2
        18        22        21        54     9        0.000000        0.175830         3
        18        22        21        54     9      180.000000        0.068006         4
        18        22        21        55     9        0.000000       -0.040956         1
        18        22        21        55     9      180.000000       -0.134546         2
        18        22        21        55     9        0.000000        0.175830         3
        18        22        21        55     9      180.000000        0.068006         4
        19        11        18        22     9        0.000000       -8.011946         1
        19        11        18        22     9      180.000000        8.433476         2
        19        11        18        22     9        0.000000        0.257643         3
        19        11        18        22     9      180.000000       -4.599935         4
        19        11        18        50     9        0.000000       -1.122176         1
        19        11        18        50     9      180.000000       -5.819555         2
        19        11        18        50     9        0.000000        0.140568         3
        19        11        18        50     9      180.000000        0.114692         4
        19        21        22        56     9        0.000000       -0.040956         1
        19        21        22        56     9      180.000000       -0.134546         2
        19        21        22        56     9        0.000000        0.175830         3
        19        21        22        56     9      180.000000        0.068006         4
        19        21        22        57     9        0.000000       -0.040956         1
        19        21        22        57     9      180.000000       -0.134546         2
        19        21        22        57     9        0.000000        0.175830         3
        19        21        22        57     9      180.000000        0.068006         4
        20         9        17        48     9        0.000000       -0.428027         1
        20         9        17        48     9      180.000000        0.276117         2
        20         9        17        48     9        0.000000        0.876566         3
        20         9        17        48     9      180.000000       -0.010241         4
        20         9        17        49     9        0.000000       -0.428027         1
        20         9        17        49     9      180.000000        0.276117         2
        20         9        17        49     9        0.000000        0.876566         3
        20         9        17        49     9      180.000000       -0.010241         4
        20        19        11        45     9        0.000000        3.791343         1
        20        19        11        45     9      180.000000        0.915306         2
        20        19        11        45     9        0.000000        0.458893         3
        20        19        11        45     9      180.000000        0.414023         4
        20        19        11        74     9        0.000000        3.791343         1
        20        19        11        74     9      180.000000        0.915306         2
        20        19        11        74     9        0.000000        0.458893         3
        20        19        11        74     9      180.000000        0.414023         4
        20        19        21        22     9        0.000000        0.958471         1
        20        19        21        22     9      180.000000        1.828225         2
        20        19        21        22     9        0.000000        0.287884         3
        20        19        21        22     9      180.000000       -0.116139         4
        20        19        21        54     9        0.000000       -0.152771         1
        20        19        21        54     9      180.000000       -0.126016         2
        20        19        21        54     9        0.000000        0.292799         3
        20        19        21        54     9      180.000000        0.022367         4
        20        19        21        55     9        0.000000       -0.152771         1
        20        19        21        55     9      180.000000       -0.126016         2
        20        19        21        55     9        0.000000        0.292799         3
        20        19        21        55     9      180.000000        0.022367         4
        21        19        11        45     9        0.000000       -3.138482         1
        21        19        11        45     9      180.000000        2.167024         2
        21        19        11        45     9        0.000000        0.241529         3
        21        19        11        45     9      180.000000       -0.244107         4
        21        19        11        74     9        0.000000       -3.138482         1
        21        19        11        74     9      180.000000        2.167024         2
        21        19        11        74     9        0.000000        0.241529         3
        21        19        11        74     9      180.000000       -0.244107         4
        21        19        20        52     9        0.000000       -0.249238         1
        21        19        20        52     9      180.000000        0.008704         2
        21        19        20        52     9        0.000000        0.634047         3
        21        19        20        52     9      180.000000        0.041270         4
        21        19        20        53     9        0.000000       -0.249238         1
        21        19        20        53     9      180.000000        0.008704         2
        21        19        20        53     9        0.000000        0.634047         3
        21        19        20        53     9      180.000000        0.041270         4
        21        22        18        50     9        0.000000        0.718089         1
        21        22        18        50     9      180.000000        0.470471         2
        21        22        18        50     9        0.000000        0.272978         3
        21        22        18        50     9      180.000000        0.606890         4
        22        18        11        45     9        0.000000       -3.138482         1
        22        18        11        45     9      180.000000        2.167024         2
        22        18        11        45     9        0.000000        0.241529         3
        22        18        11        45     9      180.000000       -0.244107         4
        22        18        11        74     9        0.000000       -3.138482         1
        22        18        11        74     9      180.000000        2.167024         2
        22        18        11        74     9        0.000000        0.241529         3
        22        18        11        74     9      180.000000       -0.244107         4
        22        18        17        48     9        0.000000       -0.249238         1
        22        18        17        48     9      180.000000        0.008704         2
        22        18        17        48     9        0.000000        0.634047         3
        22        18        17        48     9      180.000000        0.041270         4
        22        18        17        49     9        0.000000       -0.249238         1
        22        18        17        49     9      180.000000        0.008704         2
        22        18        17        49     9        0.000000        0.634047         3
        22        18        17        49     9      180.000000        0.041270         4
        22        21        19        51     9        0.000000        0.718089         1
        22        21        19        51     9      180.000000        0.470471         2
        22        21        19        51     9        0.000000        0.272978         3
        22        21        19        51     9      180.000000        0.606890         4
        23        15        27        26     9        0.000000        0.650025         1
        23        15        27        26     9      180.000000        8.600039         2
        23        15        27        26     9        0.000000       -0.907603         3
        23        15        27        26     9      180.000000       -0.292245         4
        23        15        27        31     9        0.000000        0.251014         1
        23        15        27        31     9      180.000000        5.196290         2
        23        15        27        31     9        0.000000       -0.132594         3
        23        15        27        31     9      180.000000       -0.146426         4
        23        24        25        26     9        0.000000       -0.072085         1
        23        24        25        26     9      180.000000       20.157797         2
        23        24        25        26     9        0.000000       -1.570501         3
        23        24        25        26     9      180.000000       -0.529394         4
        23        24        25        59     9        0.000000        0.072750         1
        23        24        25        59     9      180.000000       16.479059         2
        23        24        25        59     9        0.000000       -0.468654         3
        23        24        25        59     9      180.000000       -0.077831         4
        24        23        15        27     9        0.000000       -0.164613         1
        24        23        15        27     9      180.000000       22.563501         2
        24        23        15        27     9        0.000000       -1.473738         3
        24        23        15        27     9      180.000000       -0.607307         4
        24        25        26        27     9        0.000000       -0.029372         1
        24        25        26        27     9      180.000000       16.997831         2
        24        25        26        27     9        0.000000       -1.066451         3
        24        25        26        27     9      180.000000       -0.324188         4
        24        25        26        28     9        0.000000       -0.279002         1
        24        25        26        28     9      180.000000       14.014157         2
        24        25        26        28     9        0.000000       -0.665266         3
        24        25        26        28     9      180.000000       -0.201471         4
        25        24        23        58     9        0.000000       -0.022263         1
        25        24        23        58     9      180.000000       14.013427         2
        25        24        23        58     9        0.000000       -0.798017         3
        25        24        23        58     9      180.000000        0.054446         4
        25        26        27        31     9        0.000000        0.052636         1
        25        26        27        31     9      180.000000        9.894095         2
        25        26        27        31     9        0.000000       -0.362441         3
        25        26        27        31     9      180.000000       -0.202702         4
        25        26        28        29     9        0.000000       -0.233218         1
        25        26        28        29     9      180.000000       14.142494         2
        25        26        28        29     9        0.000000       -0.674438         3
        25        26        28        29     9      180.000000       -0.246437         4
        25        26        28        60     9        0.000000       -0.079270         1
        25        26        28        60     9      180.000000       11.607451         2
        25        26        28        60     9        0.000000       -0.540513         3
        25        26        28        60     9      180.000000        0.000628         4
        26        25        24        43     9        0.000000        0.020381         1
        26        25        24        43     9      180.000000       15.555641         2
        26        25        24        43     9        0.000000       -0.659886         3
        26        25        24        43     9      180.000000        0.023643         4
        26        27        31        30     9        0.000000        0.538547         1
        26        27        31        30     9      180.000000       11.070125         2
        26        27        31        30     9        0.000000       -0.703497         3
        26        27        31        30     9      180.000000       -0.492706         4
        26        27        31        41     9        0.000000        0.604558         1
        26        27        31        41     9      180.000000       10.634974         2
        26        27        31        41     9        0.000000        0.286421         3
        26        27        31        41     9      180.000000       -0.714249         4
        26        28        29        30     9        0.000000       -0.106480         1
        26        28        29        30     9      180.000000       20.772312         2
        26        28        29        30     9        0.000000       -1.496615         3
        26        28        29        30     9      180.000000       -0.591139         4
        26        28        29        61     9        0.000000        0.000065         1
        26        28        29        61     9      180.000000       15.655804         2
        26        28        29        61     9        0.000000       -0.681400         3
        26        28        29        61     9      180.000000       -0.023899         4
        27        15        23        58     9        0.000000        0.088394         1
        27        15        23        58     9      180.000000       17.764487         2
        27        15        23        58     9        0.000000       -0.607975         3
        27        15        23        58     9      180.000000       -0.051665         4
        27        26        25        59     9        0.000000        0.129623         1
        27        26        25        59     9      180.000000       13.146726         2
        27        26        25        59     9        0.000000       -0.171951         3
        27        26        25        59     9      180.000000       -0.160388         4
        27        26        28        29     9        0.000000       -0.010098         1
        27        26        28        29     9      180.000000       17.137212         2
        27        26        28        29     9        0.000000       -1.065282         3
        27        26        28        29     9      180.000000       -0.359853         4
        27        26        28        60     9        0.000000        0.134583         1
        27        26        28        60     9      180.000000       13.175917         2
        27        26        28        60     9        0.000000       -0.176389         3
        27        26        28        60     9      180.000000       -0.155610         4
        27        31        30        29     9        0.000000        0.207986         1
        27        31        30        29     9      180.000000       20.457878         2
        27        31        30        29     9        0.000000       -1.086264         3
        27        31        30        29     9      180.000000       -0.611639         4
        27        31        30        76     9        0.000000       -0.074745         1
        27        31        30        76     9      180.000000       15.319840         2
        27        31        30        76     9        0.000000       -0.502084         3
        27        31        30        76     9      180.000000       -0.108621         4
        28        26        25        59     9        0.000000       -0.075387         1
        28        26        25        59     9      180.000000       11.477072         2
        28        26        25        59     9        0.000000       -0.543670         3
        28        26        25        59     9      180.000000        0.019804         4
        28        26        27        31     9        0.000000        0.046589         1
        28        26        27        31     9      180.000000        9.929921         2
        28        26        27        31     9        0.000000       -0.352955         3
        28        26        27        31     9      180.000000       -0.194639         4
        28        29        30        31     9        0.000000       -0.052472         1
        28        29        30        31     9      180.000000       15.929456         2
        28        29        30        31     9        0.000000       -1.513048         3
        28        29        30        31     9      180.000000       -0.263345         4
        28        29        30        76     9        0.000000       -0.025516         1
        28        29        30        76     9      180.000000       13.067018         2
        28        29        30        76     9        0.000000       -0.737753         3
        28        29        30        76     9      180.000000        0.119593         4
        29        30        31        41     9        0.000000        0.124786         1
        29        30        31        41     9      180.000000       23.535293         2
        29        30        31        41     9        0.000000        0.385567         3
        29        30        31        41     9      180.000000       -1.194974         4
        30        29        28        60     9        0.000000        0.059417         1
        30        29        28        60     9      180.000000       16.468704         2
        30        29        28        60     9        0.000000       -0.522034         3
        30        29        28        60     9      180.000000       -0.026165         4
        31        30        29        61     9        0.000000        0.062895         1
        31        30        29        61     9      180.000000       12.910021         2
        31        30        29        61     9        0.000000       -0.676147         3
        31        30        29        61     9      180.000000        0.056779         4
        32        13        35        34     9        0.000000       -3.230342         1
        32        13        35        34     9      180.000000        8.868919         2
        32        13        35        34     9        0.000000       -0.268059         3
        32        13        35        34     9      180.000000       -3.268638         4
        32        13        35        65     9        0.000000        0.226973         1
        32        13        35        65     9      180.000000       -0.276803         2
        32        13        35        65     9        0.000000        0.112024         3
        32        13        35        65     9      180.000000        0.067140         4
        32        13        35        66     9        0.000000        0.226973         1
        32        13        35        66     9      180.000000       -0.276803         2
        32        13        35        66     9        0.000000        0.112024         3
        32        13        35        66     9      180.000000        0.067140         4
        32        13        36        37     9        0.000000       -1.035771         1
        32        13        36        37     9      180.000000        5.629792         2
        32        13        36        37     9        0.000000       -0.186851         3
        32        13        36        37     9      180.000000       -1.885047         4
        32        13        36        67     9        0.000000        0.384621         1
        32        13        36        67     9      180.000000       -0.327728         2
        32        13        36        67     9        0.000000        0.190293         3
        32        13        36        67     9      180.000000        0.058356         4
        32        13        36        68     9        0.000000        0.384621         1
        32        13        36        68     9      180.000000       -0.327728         2
        32        13        36        68     9        0.000000        0.190293         3
        32        13        36        68     9      180.000000        0.058356         4
        32        33        34        35     9        0.000000       -0.081751         1
        32        33        34        35     9      180.000000        5.204013         2
        32        33        34        35     9        0.000000       -0.209179         3
        32        33        34        35     9      180.000000       -2.105636         4
        32        33        34        64     9        0.000000       -0.019594         1
        32        33        34        64     9      180.000000       -0.002705         2
        32        33        34        64     9        0.000000        0.071931         3
        32        33        34        64     9      180.000000        0.114244         4
        32        33        34        73     9        0.000000       -0.019594         1
        32        33        34        73     9      180.000000       -0.002705         2
        32        33        34        73     9        0.000000        0.071931         3
        32        33        34        73     9      180.000000        0.114244         4
        32        38        37        36     9        0.000000       -0.949007         1
        32        38        37        36     9      180.000000        6.436503         2
        32        38        37        36     9        0.000000       -0.300466         3
        32        38        37        36     9      180.000000       -2.143579         4
        32        38        37        81     9        0.000000        0.766918         1
        32        38        37        81     9      180.000000        0.252111         2
        32        38        37        81     9        0.000000        0.324255         3
        32        38        37        81     9      180.000000        0.280951         4
        32        38        37        82     9        0.000000        0.766918         1
        32        38        37        82     9      180.000000        0.252111         2
        32        38        37        82     9        0.000000        0.324255         3
        32        38        37        82     9      180.000000        0.280951         4
        33        32        13        35     9        0.000000       -2.615372         1
        33        32        13        35     9      180.000000        1.284449         2
        33        32        13        35     9        0.000000        0.132645         3
        33        32        13        35     9      180.000000       -0.413609         4
        33        32        13        36     9        0.000000       -3.540567         1
        33        32        13        36     9      180.000000        1.833851         2
        33        32        13        36     9        0.000000        0.126340         3
        33        32        13        36     9      180.000000       -0.477606         4
        33        32        13        75     9        0.000000        3.547035         1
        33        32        13        75     9      180.000000       -1.084438         2
        33        32        13        75     9        0.000000        0.282488         3
        33        32        13        75     9      180.000000        0.462970         4
        33        32        16        46     9        0.000000        0.101435         1
        33        32        16        46     9      180.000000        0.253856         2
        33        32        16        46     9        0.000000        0.693750         3
        33        32        16        46     9      180.000000        0.063063         4
        33        32        16        47     9        0.000000        0.101435         1
        33        32        16        47     9      180.000000        0.253856         2
        33        32        16        47     9        0.000000        0.693750         3
        33        32        16        47     9      180.000000        0.063063         4
        33        32        38        37     9        0.000000        0.601354         1
        33        32        38        37     9      180.000000        0.191323         2
        33        32        38        37     9        0.000000        0.123577         3
        33        32        38        37     9      180.000000        0.109471         4
        33        32        38        71     9        0.000000       -0.007329         1
        33        32        38        71     9      180.000000       -0.003378         2
        33        32        38        71     9        0.000000        0.385125         3
        33        32        38        71     9      180.000000        0.007371         4
        33        32        38        72     9        0.000000       -0.007329         1
        33        32        38        72     9      180.000000       -0.003378         2
        33        32        38        72     9        0.000000        0.385125         3
        33        32        38        72     9      180.000000        0.007371         4
        33        34        35        65     9        0.000000        0.003248         1
        33        34        35        65     9      180.000000       -0.144570         2
        33        34        35        65     9        0.000000        0.235516         3
        33        34        35        65     9      180.000000        0.055714         4
        33        34        35        66     9        0.000000        0.003248         1
        33        34        35        66     9      180.000000       -0.144570         2
        33        34        35        66     9        0.000000        0.235516         3
        33        34        35        66     9      180.000000        0.055714         4
        34        33        32        38     9        0.000000       -0.566072         1
        34        33        32        38     9      180.000000        1.076040         2
        34        33        32        38     9        0.000000        0.124353         3
        34        33        32        38     9      180.000000       -0.072085         4
        34        35        13        36     9        0.000000       -2.177514         1
        34        35        13        36     9      180.000000        0.626458         2
        34        35        13        36     9        0.000000        0.264259         3
        34        35        13        36     9      180.000000       -0.049276         4
        34        35        13        75     9        0.000000        4.774002         1
        34        35        13        75     9      180.000000       -1.965803         2
        34        35        13        75     9        0.000000        0.342550         3
        34        35        13        75     9      180.000000        0.401839         4
        35        13        32        38     9        0.000000       -3.299582         1
        35        13        32        38     9      180.000000        1.630168         2
        35        13        32        38     9        0.000000        0.220313         3
        35        13        32        38     9      180.000000       -0.384593         4
        35        13        36        37     9        0.000000        2.034933         1
        35        13        36        37     9      180.000000       -0.915162         2
        35        13        36        37     9        0.000000        0.267467         3
        35        13        36        37     9      180.000000        0.394497         4
        35        13        36        67     9        0.000000        0.084027         1
        35        13        36        67     9      180.000000        0.212516         2
        35        13        36        67     9        0.000000        0.515626         3
        35        13        36        67     9      180.000000       -0.041411         4
        35        13        36        68     9        0.000000        0.084027         1
        35        13        36        68     9      180.000000        0.212516         2
        35        13        36        68     9        0.000000        0.515626         3
        35        13        36        68     9      180.000000       -0.041411         4
        35        34        33        62     9        0.000000        0.003740         1
        35        34        33        62     9      180.000000       -0.091920         2
        35        34        33        62     9        0.000000        0.140959         3
        35        34        33        62     9      180.000000        0.076918         4
        35        34        33        63     9        0.000000        0.003740         1
        35        34        33        63     9      180.000000       -0.091920         2
        35        34        33        63     9        0.000000        0.140959         3
        35        34        33        63     9      180.000000        0.076918         4
        36        13        32        38     9        0.000000       -5.171998         1
        36        13        32        38     9      180.000000        2.485873         2
        36        13        32        38     9        0.000000        0.160422         3
        36        13        32        38     9      180.000000       -0.528850         4
        36        13        35        65     9        0.000000       -0.026508         1
        36        13        35        65     9      180.000000        0.080541         2
        36        13        35        65     9        0.000000        0.456334         3
        36        13        35        65     9      180.000000       -0.024302         4
        36        13        35        66     9        0.000000       -0.026508         1
        36        13        35        66     9      180.000000        0.080541         2
        36        13        35        66     9        0.000000        0.456334         3
        36        13        35        66     9      180.000000       -0.024302         4
        36        37        38        71     9        0.000000       -0.052150         1
        36        37        38        71     9      180.000000       -0.125466         2
        36        37        38        71     9        0.000000        0.087096         3
        36        37        38        71     9      180.000000        0.118739         4
        36        37        38        72     9        0.000000       -0.052150         1
        36        37        38        72     9      180.000000       -0.125466         2
        36        37        38        72     9        0.000000        0.087096         3
        36        37        38        72     9      180.000000        0.118739         4
        36        37        81        39     9        0.000000       -2.253438         1
        36        37        81        39     9      180.000000       -0.094777         2
        36        37        81        39     9        0.000000        1.417652         3
        36        37        81        39     9      180.000000       -0.119616         4
        36        37        82        40     9        0.000000       -2.253438         1
        36        37        82        40     9      180.000000       -0.094777         2
        36        37        82        40     9        0.000000        1.417652         3
        36        37        82        40     9      180.000000       -0.119616         4
        37        36        13        75     9        0.000000        9.265325         1
        37        36        13        75     9      180.000000       -3.185225         2
        37        36        13        75     9        0.000000        0.480695         3
        37        36        13        75     9      180.000000        0.151349         4
        37        81        39        69     9        0.000000       -0.006818         1
        37        81        39        69     9      180.000000        0.038061         2
        37        81        39        69     9        0.000000        1.083768         3
        37        81        39        69     9      180.000000        0.020057         4
        37        81        39        77     9        0.000000       -0.006818         1
        37        81        39        77     9      180.000000        0.038061         2
        37        81        39        77     9        0.000000        1.083768         3
        37        81        39        77     9      180.000000        0.020057         4
        37        81        39        78     9        0.000000       -0.006818         1
        37        81        39        78     9      180.000000        0.038061         2
        37        81        39        78     9        0.000000        1.083768         3
        37        81        39        78     9      180.000000        0.020057         4
        37        82        40        70     9        0.000000       -0.006818         1
        37        82        40        70     9      180.000000        0.038061         2
        37        82        40        70     9        0.000000        1.083768         3
        37        82        40        70     9      180.000000        0.020057         4
        37        82        40        79     9        0.000000       -0.006818         1
        37        82        40        79     9      180.000000        0.038061         2
        37        82        40        79     9        0.000000        1.083768         3
        37        82        40        79     9      180.000000        0.020057         4
        37        82        40        80     9        0.000000       -0.006818         1
        37        82        40        80     9      180.000000        0.038061         2
        37        82        40        80     9        0.000000        1.083768         3
        37        82        40        80     9      180.000000        0.020057         4
        38        32        13        75     9        0.000000        3.713747         1
        38        32        13        75     9      180.000000       -1.051879         2
        38        32        13        75     9        0.000000        0.386337         3
        38        32        13        75     9      180.000000        0.507667         4
        38        32        16        46     9        0.000000        0.113010         1
        38        32        16        46     9      180.000000        0.195476         2
        38        32        16        46     9        0.000000        0.702545         3
        38        32        16        46     9      180.000000        0.052733         4
        38        32        16        47     9        0.000000        0.113010         1
        38        32        16        47     9      180.000000        0.195476         2
        38        32        16        47     9        0.000000        0.702545         3
        38        32        16        47     9      180.000000        0.052733         4
        38        32        33        62     9        0.000000        0.002036         1
        38        32        33        62     9      180.000000       -0.057401         2
        38        32        33        62     9        0.000000        0.383799         3
        38        32        33        62     9      180.000000       -0.006027         4
        38        32        33        63     9        0.000000        0.002036         1
        38        32        33        63     9      180.000000       -0.057401         2
        38        32        33        63     9        0.000000        0.383799         3
        38        32        33        63     9      180.000000       -0.006027         4
        38        37        36        67     9        0.000000        0.124096         1
        38        37        36        67     9      180.000000       -0.049644         2
        38        37        36        67     9        0.000000        0.201964         3
        38        37        36        67     9      180.000000        0.060976         4
        38        37        36        68     9        0.000000        0.124096         1
        38        37        36        68     9      180.000000       -0.049644         2
        38        37        36        68     9        0.000000        0.201964         3
        38        37        36        68     9      180.000000        0.060976         4
        38        37        81        39     9        0.000000       -1.836045         1
        38        37        81        39     9      180.000000        1.254906         2
        38        37        81        39     9        0.000000        1.258041         3
        38        37        81        39     9      180.000000       -0.035085         4
        38        37        82        40     9        0.000000       -1.836045         1
        38        37        82        40     9      180.000000        1.254906         2
        38        37        82        40     9        0.000000        1.258041         3
        38        37        82        40     9      180.000000       -0.035085         4
        39        81        37        82     9        0.000000        0.534042         1
        39        81        37        82     9      180.000000       -2.613703         2
        39        81        37        82     9        0.000000        1.530021         3
        39        81        37        82     9      180.000000       -0.256333         4
        40        82        37        81     9        0.000000        0.534042         1
        40        82        37        81     9      180.000000       -2.613703         2
        40        82        37        81     9        0.000000        1.530021         3
        40        82        37        81     9      180.000000       -0.256333         4
        41        31        30        76     9        0.000000       -0.168655         1
        41        31        30        76     9      180.000000       16.436737         2
        41        31        30        76     9        0.000000       -0.006293         3
        41        31        30        76     9      180.000000       -0.040946         4
        43        24        23        58     9        0.000000       -0.205233         1
        43        24        23        58     9      180.000000       11.446277         2
        43        24        23        58     9        0.000000       -0.782973         3
        43        24        23        58     9      180.000000        0.209926         4
        43        24        25        59     9        0.000000       -0.132766         1
        43        24        25        59     9      180.000000       12.496672         2
        43        24        25        59     9        0.000000       -0.594343         3
        43        24        25        59     9      180.000000        0.320491         4
        45        11        18        50     9        0.000000       -0.497211         1
        45        11        18        50     9      180.000000        2.354124         2
        45        11        18        50     9        0.000000        0.397744         3
        45        11        18        50     9      180.000000        0.067520         4
        45        11        19        51     9        0.000000       -0.497211         1
        45        11        19        51     9      180.000000        2.354124         2
        45        11        19        51     9        0.000000        0.397744         3
        45        11        19        51     9      180.000000        0.067520         4
        48        17        18        50     9        0.000000        0.154148         1
        48        17        18        50     9      180.000000        0.583964         2
        48        17        18        50     9        0.000000        0.589180         3
        48        17        18        50     9      180.000000       -0.059466         4
        49        17        18        50     9        0.000000        0.154148         1
        49        17        18        50     9      180.000000        0.583964         2
        49        17        18        50     9        0.000000        0.589180         3
        49        17        18        50     9      180.000000       -0.059466         4
        50        18        11        74     9        0.000000       -0.497211         1
        50        18        11        74     9      180.000000        2.354124         2
        50        18        11        74     9        0.000000        0.397744         3
        50        18        11        74     9      180.000000        0.067520         4
        50        18        22        56     9        0.000000       -0.104800         1
        50        18        22        56     9      180.000000        0.054432         2
        50        18        22        56     9        0.000000        0.500456         3
        50        18        22        56     9      180.000000       -0.079027         4
        50        18        22        57     9        0.000000       -0.104800         1
        50        18        22        57     9      180.000000        0.054432         2
        50        18        22        57     9        0.000000        0.500456         3
        50        18        22        57     9      180.000000       -0.079027         4
        51        19        11        74     9        0.000000       -0.497211         1
        51        19        11        74     9      180.000000        2.354124         2
        51        19        11        74     9        0.000000        0.397744         3
        51        19        11        74     9      180.000000        0.067520         4
        51        19        20        52     9        0.000000        0.154148         1
        51        19        20        52     9      180.000000        0.583964         2
        51        19        20        52     9        0.000000        0.589180         3
        51        19        20        52     9      180.000000       -0.059466         4
        51        19        20        53     9        0.000000        0.154148         1
        51        19        20        53     9      180.000000        0.583964         2
        51        19        20        53     9        0.000000        0.589180         3
        51        19        20        53     9      180.000000       -0.059466         4
        51        19        21        54     9        0.000000       -0.104800         1
        51        19        21        54     9      180.000000        0.054432         2
        51        19        21        54     9        0.000000        0.500456         3
        51        19        21        54     9      180.000000       -0.079027         4
        51        19        21        55     9        0.000000       -0.104800         1
        51        19        21        55     9      180.000000        0.054432         2
        51        19        21        55     9        0.000000        0.500456         3
        51        19        21        55     9      180.000000       -0.079027         4
        54        21        22        56     9        0.000000        0.035024         1
        54        21        22        56     9      180.000000        0.050947         2
        54        21        22        56     9        0.000000        0.415366         3
        54        21        22        56     9      180.000000       -0.045840         4
        54        21        22        57     9        0.000000        0.035024         1
        54        21        22        57     9      180.000000        0.050947         2
        54        21        22        57     9        0.000000        0.415366         3
        54        21        22        57     9      180.000000       -0.045840         4
        55        21        22        56     9        0.000000        0.035024         1
        55        21        22        56     9      180.000000        0.050947         2
        55        21        22        56     9        0.000000        0.415366         3
        55        21        22        56     9      180.000000       -0.045840         4
        55        21        22        57     9        0.000000        0.035024         1
        55        21        22        57     9      180.000000        0.050947         2
        55        21        22        57     9        0.000000        0.415366         3
        55        21        22        57     9      180.000000       -0.045840         4
        60        28        29        61     9        0.000000       -0.138670         1
        60        28        29        61     9      180.000000       12.729537         2
        60        28        29        61     9        0.000000       -0.650212         3
        60        28        29        61     9      180.000000        0.305447         4
        61        29        30        76     9        0.000000       -0.257991         1
        61        29        30        76     9      180.000000       11.031163         2
        61        29        30        76     9        0.000000       -0.652563         3
        61        29        30        76     9      180.000000        0.132805         4
        62        33        34        64     9        0.000000       -0.021059         1
        62        33        34        64     9      180.000000        0.048096         2
        62        33        34        64     9        0.000000        0.308972         3
        62        33        34        64     9      180.000000        0.013951         4
        62        33        34        73     9        0.000000       -0.021059         1
        62        33        34        73     9      180.000000        0.048096         2
        62        33        34        73     9        0.000000        0.308972         3
        62        33        34        73     9      180.000000        0.013951         4
        63        33        34        64     9        0.000000       -0.021059         1
        63        33        34        64     9      180.000000        0.048096         2
        63        33        34        64     9        0.000000        0.308972         3
        63        33        34        64     9      180.000000        0.013951         4
        63        33        34        73     9        0.000000       -0.021059         1
        63        33        34        73     9      180.000000        0.048096         2
        63        33        34        73     9        0.000000        0.308972         3
        63        33        34        73     9      180.000000        0.013951         4
        64        34        35        65     9        0.000000       -0.030156         1
        64        34        35        65     9      180.000000        0.013776         2
        64        34        35        65     9        0.000000        0.388689         3
        64        34        35        65     9      180.000000       -0.019399         4
        64        34        35        66     9        0.000000       -0.030156         1
        64        34        35        66     9      180.000000        0.013776         2
        64        34        35        66     9        0.000000        0.388689         3
        64        34        35        66     9      180.000000       -0.019399         4
        65        35        13        75     9        0.000000       -0.085704         1
        65        35        13        75     9      180.000000        0.630777         2
        65        35        13        75     9        0.000000        0.484809         3
        65        35        13        75     9      180.000000        0.045953         4
        65        35        34        73     9        0.000000       -0.030156         1
        65        35        34        73     9      180.000000        0.013776         2
        65        35        34        73     9        0.000000        0.388689         3
        65        35        34        73     9      180.000000       -0.019399         4
        66        35        13        75     9        0.000000       -0.085704         1
        66        35        13        75     9      180.000000        0.630777         2
        66        35        13        75     9        0.000000        0.484809         3
        66        35        13        75     9      180.000000        0.045953         4
        66        35        34        73     9        0.000000       -0.030156         1
        66        35        34        73     9      180.000000        0.013776         2
        66        35        34        73     9        0.000000        0.388689         3
        66        35        34        73     9      180.000000       -0.019399         4
        67        36        13        75     9        0.000000       -0.055877         1
        67        36        13        75     9      180.000000        0.911907         2
        67        36        13        75     9        0.000000        0.359690         3
        67        36        13        75     9      180.000000        0.123536         4
        67        36        37        81     9        0.000000        0.332276         1
        67        36        37        81     9      180.000000       -0.148052         2
        67        36        37        81     9        0.000000        0.539702         3
        67        36        37        81     9      180.000000       -0.042977         4
        67        36        37        82     9        0.000000        0.332276         1
        67        36        37        82     9      180.000000       -0.148052         2
        67        36        37        82     9        0.000000        0.539702         3
        67        36        37        82     9      180.000000       -0.042977         4
        68        36        13        75     9        0.000000       -0.055877         1
        68        36        13        75     9      180.000000        0.911907         2
        68        36        13        75     9        0.000000        0.359690         3
        68        36        13        75     9      180.000000        0.123536         4
        68        36        37        81     9        0.000000        0.332276         1
        68        36        37        81     9      180.000000       -0.148052         2
        68        36        37        81     9        0.000000        0.539702         3
        68        36        37        81     9      180.000000       -0.042977         4
        68        36        37        82     9        0.000000        0.332276         1
        68        36        37        82     9      180.000000       -0.148052         2
        68        36        37        82     9        0.000000        0.539702         3
        68        36        37        82     9      180.000000       -0.042977         4
        71        38        37        81     9        0.000000        0.120451         1
        71        38        37        81     9      180.000000        0.017758         2
        71        38        37        81     9        0.000000        0.424464         3
        71        38        37        81     9      180.000000       -0.067202         4
        71        38        37        82     9        0.000000        0.120451         1
        71        38        37        82     9      180.000000        0.017758         2
        71        38        37        82     9        0.000000        0.424464         3
        71        38        37        82     9      180.000000       -0.067202         4
        72        38        37        81     9        0.000000        0.120451         1
        72        38        37        81     9      180.000000        0.017758         2
        72        38        37        81     9        0.000000        0.424464         3
        72        38        37        81     9      180.000000       -0.067202         4
        72        38        37        82     9        0.000000        0.120451         1
        72        38        37        82     9      180.000000        0.017758         2
        72        38        37        82     9        0.000000        0.424464         3
        72        38        37        82     9      180.000000       -0.067202         4

[ dihedrals ] ; impropers
;       ai        aj        ak        al funct           phase               k        pn
         6         2         3         5     4      180.000000       26.953280         2
         6         3         5         2     4      180.000000       26.953280         2
         6         5         2         3     4      180.000000       26.953280         2
         8         1         5         9     4      180.000000        8.565568         2
         8         5         9         1     4      180.000000        8.565568         2
         8         9         1         5     4      180.000000        8.565568         2
        10         1         7        44     4      180.000000        1.918377         2
        10         7        44         1     4      180.000000        1.918377         2
        10        44         1         7     4      180.000000        1.918377         2

[ pairs ]
;       ai        aj funct
         1         6     1
         1        12     1
         1        17     1
         1        20     1
         1        42     1
         2         8     1
         2        10     1
         2        12     1
         2        16     1
         2        42     1
         3         4     1
         3         8     1
         3        13     1
         3        33     1
         3        38     1
         4         5     1
         4         7     1
         4         9     1
         4        15     1
         4        44     1
         5        10     1
         5        16     1
         5        17     1
         5        20     1
         6         9     1
         6        14     1
         6        32     1
         6        46     1
         6        47     1
         7         8     1
         7        23     1
         7        27     1
         7        42     1
         8        14     1
         8        18     1
         8        19     1
         8        44     1
         8        48     1
         8        49     1
         8        52     1
         8        53     1
         9        10     1
         9        11     1
         9        21     1
         9        22     1
         9        50     1
         9        51     1
        10        14     1
        10        15     1
        11        48     1
        11        49     1
        11        52     1
        11        53     1
        11        54     1
        11        55     1
        11        56     1
        11        57     1
        12        24     1
        12        26     1
        12        31     1
        12        44     1
        12        58     1
        13        46     1
        13        47     1
        13        62     1
        13        63     1
        13        64     1
        13        71     1
        13        72     1
        13        73     1
        13        81     1
        13        82     1
        14        23     1
        14        27     1
        15        25     1
        15        28     1
        15        30     1
        15        41     1
        15        42     1
        15        43     1
        16        34     1
        16        35     1
        16        36     1
        16        37     1
        16        62     1
        16        63     1
        16        71     1
        16        72     1
        16        75     1
        17        19     1
        17        21     1
        17        45     1
        17        52     1
        17        53     1
        17        56     1
        17        57     1
        17        74     1
        18        20     1
        18        51     1
        18        54     1
        18        55     1
        19        50     1
        19        56     1
        19        57     1
        20        22     1
        20        45     1
        20        48     1
        20        49     1
        20        54     1
        20        55     1
        20        74     1
        21        45     1
        21        50     1
        21        52     1
        21        53     1
        21        74     1
        22        45     1
        22        48     1
        22        49     1
        22        51     1
        22        74     1
        23        26     1
        23        31     1
        23        59     1
        24        27     1
        24        28     1
        25        29     1
        25        31     1
        25        58     1
        25        60     1
        26        30     1
        26        41     1
        26        43     1
        26        61     1
        27        29     1
        27        58     1
        27        59     1
        27        60     1
        27        76     1
        28        31     1
        28        59     1
        28        76     1
        29        41     1
        30        60     1
        31        61     1
        32        64     1
        32        65     1
        32        66     1
        32        67     1
        32        68     1
        32        73     1
        32        81     1
        32        82     1
        33        36     1
        33        37     1
        33        46     1
        33        47     1
        33        65     1
        33        66     1
        33        71     1
        33        72     1
        33        75     1
        34        36     1
        34        38     1
        34        75     1
        35        37     1
        35        38     1
        35        62     1
        35        63     1
        35        67     1
        35        68     1
        36        39     1
        36        40     1
        36        65     1
        36        66     1
        36        71     1
        36        72     1
        37        69     1
        37        70     1
        37        75     1
        37        77     1
        37        78     1
        37        79     1
        37        80     1
        38        39     1
        38        40     1
        38        46     1
        38        47     1
        38        62     1
        38        63     1
        38        67     1
        38        68     1
        38        75     1
        39        82     1
        40        81     1
        41        76     1
        43        58     1
        43        59     1
        45        50     1
        45        51     1
        48        50     1
        49        50     1
        50        56     1
        50        57     1
        50        74     1
        51        52     1
        51        53     1
        51        54     1
        51        55     1
        51        74     1
        54        56     1
        54        57     1
        55        56     1
        55        57     1
        60        61     1
        61        76     1
        62        64     1
        62        73     1
        63        64     1
        63        73     1
        64        65     1
        64        66     1
        65        73     1
        65        75     1
        66        73     1
        66        75     1
        67        75     1
        67        81     1
        67        82     1
        68        75     1
        68        81     1
        68        82     1
        71        81     1
        71        82     1
        72        81     1
        72        82     1
