; ITP file created by ByteFF-ML, 2026-01-07 07:31:55.591312

[ atomtypes ]
;name           bonded.type        at.num        mass        charge   ptype           sigma         epsilon
 c0bf                                   6      0.0000       0.00000       A     3.31643e-01     4.14234e-01
 n1bf                                   7      0.0000       0.00000       A     3.38612e-01     3.95291e-01
 o2bf                                   8      0.0000       0.00000       A     3.15982e-01     3.09926e-01
 c3bf                                   6      0.0000       0.00000       A     3.31247e-01     4.16228e-01
 n4bf                                   7      0.0000       0.00000       A     3.38224e-01     3.92446e-01
 c5bf                                   6      0.0000       0.00000       A     3.31664e-01     4.13669e-01
 n6bf                                   7      0.0000       0.00000       A     3.38547e-01     3.90719e-01
 c7bf                                   6      0.0000       0.00000       A     3.31345e-01     4.09248e-01
 n8bf                                   7      0.0000       0.00000       A     3.18923e-01     8.93580e-01
 c9bf                                   6      0.0000       0.00000       A     3.31425e-01     4.12378e-01
 n10bf                                  7      0.0000       0.00000       A     2.68098e-01     7.07337e+00
 c11bf                                  6      0.0000       0.00000       A     3.31420e-01     4.07697e-01
 n12bf                                  7      0.0000       0.00000       A     2.58484e-01     1.06383e+01
 c13bf                                  6      0.0000       0.00000       A     3.31448e-01     4.13312e-01
 c14bf                                  6      0.0000       0.00000       A     3.31385e-01     4.10766e-01
 c15bf                                  6      0.0000       0.00000       A     3.39685e-01     4.49402e-01
 c16bf                                  6      0.0000       0.00000       A     3.39089e-01     4.49819e-01
 c17bf                                  6      0.0000       0.00000       A     3.39791e-01     4.48492e-01
 c18bf                                  6      0.0000       0.00000       A     3.39791e-01     4.48492e-01
 c19bf                                  6      0.0000       0.00000       A     3.39089e-01     4.49819e-01
 c20bf                                  6      0.0000       0.00000       A     3.40042e-01     4.52313e-01
 c21bf                                  6      0.0000       0.00000       A     3.40042e-01     4.52313e-01
 c22bf                                  6      0.0000       0.00000       A     3.31482e-01     4.13353e-01
 c23bf                                  6      0.0000       0.00000       A     3.31501e-01     4.12994e-01
 c24bf                                  6      0.0000       0.00000       A     3.31526e-01     4.12619e-01
 c25bf                                  6      0.0000       0.00000       A     3.31608e-01     4.13963e-01
 c26bf                                  6      0.0000       0.00000       A     3.31528e-01     4.12226e-01
 c27bf                                  6      0.0000       0.00000       A     3.40153e-01     4.56616e-01
 c28bf                                  6      0.0000       0.00000       A     3.39639e-01     4.52275e-01
 c29bf                                  6      0.0000       0.00000       A     3.39624e-01     4.53182e-01
 c30bf                                  6      0.0000       0.00000       A     3.39809e-01     4.50864e-01
 c31bf                                  6      0.0000       0.00000       A     3.39809e-01     4.50864e-01
 c32bf                                  6      0.0000       0.00000       A     3.39624e-01     4.53182e-01
 c33bf                                  6      0.0000       0.00000       A     3.39639e-01     4.52275e-01
 f34bf                                  9      0.0000       0.00000       A     3.03338e-01     3.47922e-01
 f35bf                                  9      0.0000       0.00000       A     3.03496e-01     3.49504e-01
 f36bf                                  9      0.0000       0.00000       A     3.03458e-01     3.50021e-01
 f37bf                                  9      0.0000       0.00000       A     3.03304e-01     3.47544e-01
 h38bf                                  1      0.0000       0.00000       A     2.62555e-01     6.73445e-02
 h39bf                                  1      0.0000       0.00000       A     2.53621e-01     6.72663e-02
 h40bf                                  1      0.0000       0.00000       A     1.10411e-01     4.09392e-02
 h41bf                                  1      0.0000       0.00000       A     2.41558e-01     8.71262e-02
 h42bf                                  1      0.0000       0.00000       A     2.41558e-01     8.71262e-02
 h43bf                                  1      0.0000       0.00000       A     2.41770e-01     8.68852e-02
 h44bf                                  1      0.0000       0.00000       A     2.41770e-01     8.68852e-02
 h45bf                                  1      0.0000       0.00000       A     1.89725e-01     8.84605e-02
 h46bf                                  1      0.0000       0.00000       A     1.89725e-01     8.84605e-02
 h47bf                                  1      0.0000       0.00000       A     2.41770e-01     8.68852e-02
 h48bf                                  1      0.0000       0.00000       A     2.41770e-01     8.68852e-02
 h49bf                                  1      0.0000       0.00000       A     2.60102e-01     8.79977e-02
 h50bf                                  1      0.0000       0.00000       A     2.60102e-01     8.79977e-02
 h51bf                                  1      0.0000       0.00000       A     2.60102e-01     8.79977e-02
 h52bf                                  1      0.0000       0.00000       A     2.60102e-01     8.79977e-02
 h53bf                                  1      0.0000       0.00000       A     5.37697e-02     1.97673e-02
 h54bf                                  1      0.0000       0.00000       A     2.60014e-01     8.63569e-02
 h55bf                                  1      0.0000       0.00000       A     2.60014e-01     8.63569e-02
 h56bf                                  1      0.0000       0.00000       A     2.59774e-01     8.76577e-02
 h57bf                                  1      0.0000       0.00000       A     1.88458e-01     8.70975e-02
 h58bf                                  1      0.0000       0.00000       A     1.88458e-01     8.70975e-02
 h59bf                                  1      0.0000       0.00000       A     1.88458e-01     8.70975e-02
 h60bf                                  1      0.0000       0.00000       A     1.88458e-01     8.70975e-02
 h61bf                                  1      0.0000       0.00000       A     2.59774e-01     8.76577e-02
 h62bf                                  1      0.0000       0.00000       A     2.59774e-01     8.76577e-02
 h63bf                                  1      0.0000       0.00000       A     2.60014e-01     8.63569e-02
 h64bf                                  1      0.0000       0.00000       A     2.60014e-01     8.63569e-02
 h65bf                                  1      0.0000       0.00000       A     1.10411e-01     4.09392e-02
 h66bf                                  1      0.0000       0.00000       A     1.11111e-01     4.07748e-02
 h67bf                                  1      0.0000       0.00000       A     2.59774e-01     8.76577e-02
 o68bf                                  8      0.0000       0.00000       A     3.24152e-01     3.85861e-01

[ moleculetype ]
;name             nrexcl
 MRTX_350_7RPZ_conf2       3

[ atoms ]
;       nr            type      resi   res      atom      cgnr      charge          mass ; qtot
         1            c0bf         1   UNL        c0         1    -0.21225       12.0110 ; qtot   -0.212
         2            n1bf         1   UNL        n1         2    -0.21487       14.0070 ; qtot   -0.427
         3            o2bf         1   UNL        o2         3    -0.43477       15.9990 ; qtot   -0.862
         4            c3bf         1   UNL        c3         4     0.08819       12.0110 ; qtot   -0.774
         5            n4bf         1   UNL        n4         5    -0.30392       14.0070 ; qtot   -1.078
         6            c5bf         1   UNL        c5         6     0.40705       12.0110 ; qtot   -0.671
         7            n6bf         1   UNL        n6         7    -0.63972       14.0070 ; qtot   -1.310
         8            c7bf         1   UNL        c7         8     0.42244       12.0110 ; qtot   -0.888
         9            n8bf         1   UNL        n8         9    -0.75767       14.0070 ; qtot   -1.646
        10            c9bf         1   UNL        c9        10     0.39318       12.0110 ; qtot   -1.252
        11           n10bf         1   UNL       n10        11    -0.84599       14.0070 ; qtot   -2.098
        12           c11bf         1   UNL       c11        12     0.38927       12.0110 ; qtot   -1.709
        13           n12bf         1   UNL       n12        13    -0.70391       14.0070 ; qtot   -2.413
        14           c13bf         1   UNL       c13        14     0.14738       12.0110 ; qtot   -2.266
        15           c14bf         1   UNL       c14        15    -0.17976       12.0110 ; qtot   -2.445
        16           c15bf         1   UNL       c15        16     0.18220       12.0110 ; qtot   -2.263
        17           c16bf         1   UNL       c16        17     0.18761       12.0110 ; qtot   -2.076
        18           c17bf         1   UNL       c17        18     0.12189       12.0110 ; qtot   -1.954
        19           c18bf         1   UNL       c18        19     0.12189       12.0110 ; qtot   -1.832
        20           c19bf         1   UNL       c19        20     0.18761       12.0110 ; qtot   -1.644
        21           c20bf         1   UNL       c20        21    -0.08895       12.0110 ; qtot   -1.733
        22           c21bf         1   UNL       c21        22    -0.08895       12.0110 ; qtot   -1.822
        23           c22bf         1   UNL       c22        23     0.22790       12.0110 ; qtot   -1.594
        24           c23bf         1   UNL       c23        24    -0.16825       12.0110 ; qtot   -1.762
        25           c24bf         1   UNL       c24        25     0.15920       12.0110 ; qtot   -1.603
        26           c25bf         1   UNL       c25        26     0.05168       12.0110 ; qtot   -1.552
        27           c26bf         1   UNL       c26        27     0.17498       12.0110 ; qtot   -1.377
        28           c27bf         1   UNL       c27        28     0.11905       12.0110 ; qtot   -1.257
        29           c28bf         1   UNL       c28        29    -0.09525       12.0110 ; qtot   -1.353
        30           c29bf         1   UNL       c29        30    -0.09441       12.0110 ; qtot   -1.447
        31           c30bf         1   UNL       c30        31     0.11883       12.0110 ; qtot   -1.328
        32           c31bf         1   UNL       c31        32     0.11883       12.0110 ; qtot   -1.209
        33           c32bf         1   UNL       c32        33    -0.09441       12.0110 ; qtot   -1.304
        34           c33bf         1   UNL       c33        34    -0.09525       12.0110 ; qtot   -1.399
        35           f34bf         1   UNL       f34        35    -0.15926       18.9980 ; qtot   -1.558
        36           f35bf         1   UNL       f35        36    -0.14509       18.9980 ; qtot   -1.703
        37           f36bf         1   UNL       f36        37    -0.16078       18.9980 ; qtot   -1.864
        38           f37bf         1   UNL       f37        38    -0.16107       18.9980 ; qtot   -2.025
        39           h38bf         1   UNL       h38        39     0.15943        1.0080 ; qtot   -1.866
        40           h39bf         1   UNL       h39        40     0.03309        1.0080 ; qtot   -1.833
        41           h40bf         1   UNL       h40        41     0.51984        1.0080 ; qtot   -1.313
        42           h41bf         1   UNL       h41        42     0.08818        1.0080 ; qtot   -1.225
        43           h42bf         1   UNL       h42        43     0.08818        1.0080 ; qtot   -1.137
        44           h43bf         1   UNL       h43        44     0.09494        1.0080 ; qtot   -1.042
        45           h44bf         1   UNL       h44        45     0.09494        1.0080 ; qtot   -0.947
        46           h45bf         1   UNL       h45        46     0.12104        1.0080 ; qtot   -0.826
        47           h46bf         1   UNL       h46        47     0.12104        1.0080 ; qtot   -0.705
        48           h47bf         1   UNL       h47        48     0.09494        1.0080 ; qtot   -0.610
        49           h48bf         1   UNL       h48        49     0.09494        1.0080 ; qtot   -0.515
        50           h49bf         1   UNL       h49        50     0.09222        1.0080 ; qtot   -0.423
        51           h50bf         1   UNL       h50        51     0.09222        1.0080 ; qtot   -0.330
        52           h51bf         1   UNL       h51        52     0.09222        1.0080 ; qtot   -0.238
        53           h52bf         1   UNL       h52        53     0.09222        1.0080 ; qtot   -0.146
        54           h53bf         1   UNL       h53        54     0.48065        1.0080 ; qtot    0.335
        55           h54bf         1   UNL       h54        55     0.09379        1.0080 ; qtot    0.429
        56           h55bf         1   UNL       h55        56     0.09379        1.0080 ; qtot    0.522
        57           h56bf         1   UNL       h56        57     0.08953        1.0080 ; qtot    0.612
        58           h57bf         1   UNL       h57        58     0.10385        1.0080 ; qtot    0.716
        59           h58bf         1   UNL       h58        59     0.10385        1.0080 ; qtot    0.820
        60           h59bf         1   UNL       h59        60     0.10385        1.0080 ; qtot    0.923
        61           h60bf         1   UNL       h60        61     0.10385        1.0080 ; qtot    1.027
        62           h61bf         1   UNL       h61        62     0.08953        1.0080 ; qtot    1.117
        63           h62bf         1   UNL       h62        63     0.08953        1.0080 ; qtot    1.206
        64           h63bf         1   UNL       h63        64     0.09379        1.0080 ; qtot    1.300
        65           h64bf         1   UNL       h64        65     0.09379        1.0080 ; qtot    1.394
        66           h65bf         1   UNL       h65        66     0.51984        1.0080 ; qtot    1.914
        67           h66bf         1   UNL       h66        67     0.50287        1.0080 ; qtot    2.417
        68           h67bf         1   UNL       h67        68     0.08953        1.0080 ; qtot    2.506
        69           o68bf         1   UNL       o68        69    -0.50613       15.9990 ; qtot    2.000

[ bonds ]
;       ai        aj funct               r               k
         1         4     1        0.142354   252556.189258
         1         8     1        0.143822   227380.327832
         1        10     1        0.141713   262353.118213
         2         4     1        0.135878   295080.430566
         2         6     1        0.131250   349439.104639
         3         6     1        0.136281   239610.892236
         3        16     1        0.143205   190795.175439
         4        14     1        0.141461   264074.753516
         5         6     1        0.134328   270149.980762
         5         8     1        0.132178   353485.944824
         7        10     1        0.131860   374965.258594
         7        12     1        0.136156   255663.085059
         8         9     1        0.140901   232824.533105
         9        17     1        0.146948   183317.692749
         9        20     1        0.146948   183317.692749
        10        40     1        0.108665   316739.985254
        11        18     1        0.152806   112905.191479
        11        19     1        0.152806   112905.191479
        11        41     1        0.102639   386120.761768
        11        66     1        0.102639   386120.761768
        12        14     1        0.138527   296309.378418
        12        15     1        0.148486   210774.273413
        13        28     1        0.154458    76506.753662
        13        31     1        0.151856   122921.164990
        13        32     1        0.151856   122921.164990
        13        67     1        0.102561   380805.033691
        14        36     1        0.134792   304723.830420
        15        23     1        0.139860   281384.393604
        15        27     1        0.139580   290474.889502
        16        28     1        0.153318   173532.344873
        16        42     1        0.109268   303671.650439
        16        43     1        0.109268   303671.650439
        17        18     1        0.153876   169198.544189
        17        44     1        0.109342   300785.701709
        17        45     1        0.109342   300785.701709
        18        22     1        0.153955   164525.878833
        18        46     1        0.109058   317545.502295
        19        20     1        0.153876   169198.544189
        19        21     1        0.153955   164525.878833
        19        47     1        0.109058   317545.502295
        20        48     1        0.109342   300785.701709
        20        49     1        0.109342   300785.701709
        21        22     1        0.155779   153880.211279
        21        50     1        0.109165   310874.034619
        21        51     1        0.109165   310874.034619
        22        52     1        0.109165   310874.034619
        22        53     1        0.109165   310874.034619
        23        24     1        0.139173   311963.524316
        23        37     1        0.135142   296734.469141
        24        25     1        0.138675   323698.106982
        24        39     1        0.108371   329413.644043
        25        26     1        0.139893   280436.021973
        25        38     1        0.135328   300019.077686
        26        27     1        0.139849   284361.918408
        26        69     1        0.136141   307108.817676
        27        35     1        0.135294   296089.350684
        28        29     1        0.153852   160512.722095
        28        34     1        0.153852   160512.747632
        29        30     1        0.154702   165504.958838
        29        55     1        0.109193   309418.215088
        29        56     1        0.109193   309418.215088
        30        31     1        0.154110   167634.549463
        30        57     1        0.109137   312886.588672
        30        68     1        0.109137   312886.588672
        31        58     1        0.109011   314899.474707
        31        59     1        0.109011   314899.474707
        32        33     1        0.154110   167634.549463
        32        60     1        0.109011   314899.474707
        32        61     1        0.109011   314899.474707
        33        34     1        0.154702   165504.946069
        33        62     1        0.109137   312886.588672
        33        63     1        0.109137   312886.588672
        34        64     1        0.109193   309418.215088
        34        65     1        0.109193   309418.215088
        54        69     1        0.097290   458427.886719

[ angles ]
;       ai        aj        ak funct           theta             cth
         1         4         2     1      123.114891      751.463216
         1         4        14     1      116.526779      705.202040
         1         8         5     1      120.872849      576.881066
         1         8         9     1      121.465836      413.946169
         1        10         7     1      124.054504      621.051774
         1        10        40     1      120.282509      404.517325
         2         4        14     1      120.262062      363.471146
         2         6         3     1      116.353928      505.498238
         2         6         5     1      128.384598      623.368501
         3         6         5     1      114.447853      505.929528
         3        16        28     1      107.710793      573.030772
         3        16        42     1      109.393593      450.301468
         3        16        43     1      109.393593      450.301468
         4         1         8     1      115.027817      912.271479
         4         1        10     1      117.494644      812.180630
         4         2         6     1      115.317139      456.122843
         4        14        12     1      121.355431      634.318813
         4        14        36     1      117.895409      469.217156
         5         8         9     1      117.327171      560.382434
         6         3        16     1      117.624405      529.732348
         6         5         8     1      117.677528      860.031811
         7        10        40     1      116.106056      379.385426
         7        12        14     1      120.904518      613.745990
         7        12        15     1      116.485229      553.342300
         8         1        10     1      126.870056      516.526407
         8         9        17     1      116.649673      545.542436
         8         9        20     1      116.649673      545.542373
         9        17        18     1      110.414001      573.649664
         9        17        44     1      109.994041      435.580952
         9        17        45     1      109.994041      435.580952
         9        20        19     1      110.414001      573.649664
         9        20        48     1      109.994041      435.580952
         9        20        49     1      109.994041      435.580952
        10         7        12     1      119.338211      617.538124
        11        18        17     1      106.602722      674.110546
        11        18        22     1      101.418640      536.716811
        11        18        46     1      108.498741      494.510641
        11        19        20     1      106.602722      674.110546
        11        19        21     1      101.418633      536.716811
        11        19        47     1      108.498741      494.510641
        12        14        36     1      120.060265      450.620490
        12        15        23     1      121.877014      556.061555
        12        15        27     1      121.270874      536.533263
        13        28        16     1      108.753159      643.681356
        13        28        29     1      102.084824      481.202296
        13        28        34     1      102.084824      481.202296
        13        31        30     1      103.685387      528.026629
        13        31        58     1      108.267967      500.704763
        13        31        59     1      108.267967      500.704763
        13        32        33     1      103.685387      528.026629
        13        32        60     1      108.267967      500.704763
        13        32        61     1      108.267967      500.704763
        14        12        15     1      121.245338      415.917091
        15        23        24     1      123.201981      583.630333
        15        23        37     1      118.624100      459.402127
        15        27        26     1      123.643173      647.493919
        15        27        35     1      119.620117      467.837450
        16        28        29     1      112.660423      557.401678
        16        28        34     1      112.660423      557.401678
        17         9        20     1      112.989647      531.622350
        17        18        22     1      113.199745      580.112915
        17        18        46     1      110.856812      458.517267
        18        11        19     1      101.779678      586.160933
        18        11        41     1      111.672134      452.606639
        18        11        66     1      111.672134      452.606639
        18        17        44     1      109.425522      473.224279
        18        17        45     1      109.425522      473.224279
        18        22        21     1      105.201950      510.005282
        18        22        52     1      110.206017      481.946958
        18        22        53     1      110.206017      481.946958
        19        11        41     1      111.672134      452.606639
        19        11        66     1      111.672134      452.606639
        19        20        48     1      109.425522      473.224279
        19        20        49     1      109.425522      473.224279
        19        21        22     1      105.201950      510.005282
        19        21        50     1      110.206017      481.946958
        19        21        51     1      110.206017      481.946958
        20        19        21     1      113.199745      580.112915
        20        19        47     1      110.856812      458.517267
        21        19        47     1      114.036781      411.209740
        21        22        52     1      111.675720      437.142291
        21        22        53     1      111.675720      437.142291
        22        18        46     1      114.036781      411.209740
        22        21        50     1      111.675720      437.142291
        22        21        51     1      111.675720      437.142291
        23        15        27     1      116.073753      653.608397
        23        24        25     1      117.730835      737.882709
        23        24        39     1      121.037918      433.960463
        24        23        37     1      117.598228      525.111472
        24        25        26     1      122.440750      649.143361
        24        25        38     1      119.898193      558.293562
        25        24        39     1      120.985535      439.551973
        25        26        27     1      116.697227      655.472797
        25        26        69     1      121.635437      408.627523
        26        25        38     1      117.521072      449.053278
        26        27        35     1      116.176552      476.570375
        26        69        54     1      108.307556      540.685470
        27        26        69     1      121.572433      379.385617
        28        13        31     1      106.951439      492.868350
        28        13        32     1      106.951439      492.868350
        28        13        67     1      106.579117      453.911234
        28        16        42     1      110.349136      460.886663
        28        16        43     1      110.349136      460.886663
        28        29        30     1      104.813828      499.420119
        28        29        55     1      110.583786      469.942410
        28        29        56     1      110.583786      469.942410
        28        34        33     1      104.813843      499.420119
        28        34        64     1      110.583786      469.942410
        28        34        65     1      110.583786      469.942410
        29        28        34     1      118.249939      462.622676
        29        30        31     1      104.769386      513.085983
        29        30        57     1      111.623070      467.575471
        29        30        68     1      111.623070      467.575471
        30        29        55     1      111.612610      463.871217
        30        29        56     1      111.612610      463.871217
        30        31        58     1      113.692993      427.237053
        30        31        59     1      113.692993      427.237053
        31        13        32     1      118.920425      474.551251
        31        13        67     1      107.755920      466.035902
        31        30        57     1      110.728653      474.782043
        31        30        68     1      110.728653      474.782043
        32        13        67     1      107.755920      466.035902
        32        33        34     1      104.769386      513.085983
        32        33        62     1      110.728653      474.782043
        32        33        63     1      110.728653      474.782043
        33        32        60     1      113.692993      427.237053
        33        32        61     1      113.692993      427.237053
        33        34        64     1      111.612610      463.871217
        33        34        65     1      111.612610      463.871217
        34        33        62     1      111.623062      467.575471
        34        33        63     1      111.623062      467.575471
        41        11        66     1      107.850487      393.501765
        42        16        43     1      108.669922      342.619458
        44        17        45     1      107.831497      345.579975
        48        20        49     1      107.831497      345.579975
        50        21        51     1      107.532188      357.637353
        52        22        53     1      107.532188      357.637353
        55        29        56     1      107.475159      360.296437
        57        30        68     1      107.379738      358.405318
        58        31        59     1      108.994064      348.219076
        60        32        61     1      108.994064      348.219076
        62        33        63     1      107.379738      358.405318
        64        34        65     1      107.475159      360.296437

[ dihedrals ] ; propers for gromacs 4.5 or higher, use funct 9
;       ai        aj        ak        al funct           phase               k        pn
         1         4         2         6     9        0.000000       -0.291803         1
         1         4         2         6     9      180.000000       13.557484         2
         1         4         2         6     9        0.000000       -0.487264         3
         1         4         2         6     9      180.000000       -0.366830         4
         1         4        14        12     9        0.000000       -0.195430         1
         1         4        14        12     9      180.000000       12.495257         2
         1         4        14        12     9        0.000000       -1.030598         3
         1         4        14        12     9      180.000000       -0.021970         4
         1         4        14        36     9        0.000000        0.350088         1
         1         4        14        36     9      180.000000       18.903915         2
         1         4        14        36     9        0.000000        0.188557         3
         1         4        14        36     9      180.000000       -0.633858         4
         1         8         5         6     9        0.000000        0.225022         1
         1         8         5         6     9      180.000000       18.721847         2
         1         8         5         6     9        0.000000       -0.984817         3
         1         8         5         6     9      180.000000       -0.497124         4
         1         8         9        17     9        0.000000        5.434533         1
         1         8         9        17     9      180.000000        7.654269         2
         1         8         9        17     9        0.000000       -0.102297         3
         1         8         9        17     9      180.000000        0.277433         4
         1         8         9        20     9        0.000000        5.434533         1
         1         8         9        20     9      180.000000        7.654269         2
         1         8         9        20     9        0.000000       -0.102297         3
         1         8         9        20     9      180.000000        0.277433         4
         1        10         7        12     9        0.000000       -0.286135         1
         1        10         7        12     9      180.000000       25.412379         2
         1        10         7        12     9        0.000000       -1.168870         3
         1        10         7        12     9      180.000000       -0.114723         4
         2         4         1         8     9        0.000000       -0.466576         1
         2         4         1         8     9      180.000000       12.188920         2
         2         4         1         8     9        0.000000       -0.665274         3
         2         4         1         8     9      180.000000       -0.341288         4
         2         4         1        10     9        0.000000       -0.011923         1
         2         4         1        10     9      180.000000       11.561070         2
         2         4         1        10     9        0.000000       -0.138683         3
         2         4         1        10     9      180.000000       -0.305119         4
         2         4        14        12     9        0.000000        0.328724         1
         2         4        14        12     9      180.000000       11.690868         2
         2         4        14        12     9        0.000000        0.252175         3
         2         4        14        12     9      180.000000       -0.328774         4
         2         4        14        36     9        0.000000        0.288020         1
         2         4        14        36     9      180.000000       19.215643         2
         2         4        14        36     9        0.000000        0.275211         3
         2         4        14        36     9      180.000000       -0.693534         4
         2         6         3        16     9        0.000000       -1.017207         1
         2         6         3        16     9      180.000000        7.662688         2
         2         6         3        16     9        0.000000       -0.018257         3
         2         6         3        16     9      180.000000       -0.083211         4
         2         6         5         8     9        0.000000        0.660531         1
         2         6         5         8     9      180.000000       10.715258         2
         2         6         5         8     9        0.000000        0.263610         3
         2         6         5         8     9      180.000000       -0.480731         4
         3         6         2         4     9        0.000000        0.164573         1
         3         6         2         4     9      180.000000       26.545694         2
         3         6         2         4     9        0.000000        1.065963         3
         3         6         2         4     9      180.000000       -1.663190         4
         3         6         5         8     9        0.000000        0.307543         1
         3         6         5         8     9      180.000000       19.335911         2
         3         6         5         8     9        0.000000        0.634017         3
         3         6         5         8     9      180.000000       -0.940958         4
         3        16        28        13     9        0.000000        8.177101         1
         3        16        28        13     9      180.000000       -3.538254         2
         3        16        28        13     9        0.000000        0.582136         3
         3        16        28        13     9      180.000000        0.324219         4
         3        16        28        29     9        0.000000        0.318520         1
         3        16        28        29     9      180.000000        0.616240         2
         3        16        28        29     9        0.000000        0.718058         3
         3        16        28        29     9      180.000000       -0.003804         4
         3        16        28        34     9        0.000000        0.318520         1
         3        16        28        34     9      180.000000        0.616240         2
         3        16        28        34     9        0.000000        0.718058         3
         3        16        28        34     9      180.000000       -0.003804         4
         4         1         8         5     9        0.000000       -0.534384         1
         4         1         8         5     9      180.000000        6.714923         2
         4         1         8         5     9        0.000000       -0.021031         3
         4         1         8         5     9      180.000000       -0.302644         4
         4         1         8         9     9        0.000000        0.413325         1
         4         1         8         9     9      180.000000       11.111814         2
         4         1         8         9     9        0.000000        0.610970         3
         4         1         8         9     9      180.000000       -0.511653         4
         4         1        10         7     9        0.000000       -0.029277         1
         4         1        10         7     9      180.000000       13.889174         2
         4         1        10         7     9        0.000000       -0.574594         3
         4         1        10         7     9      180.000000       -0.352617         4
         4         1        10        40     9        0.000000       -0.007991         1
         4         1        10        40     9      180.000000       11.602977         2
         4         1        10        40     9        0.000000       -0.260285         3
         4         1        10        40     9      180.000000       -0.153487         4
         4         2         6         5     9        0.000000        0.224162         1
         4         2         6         5     9      180.000000       15.319007         2
         4         2         6         5     9        0.000000        0.795202         3
         4         2         6         5     9      180.000000       -0.759933         4
         4        14        12         7     9        0.000000       -0.176611         1
         4        14        12         7     9      180.000000       13.036072         2
         4        14        12         7     9        0.000000       -0.341463         3
         4        14        12         7     9      180.000000       -0.429548         4
         4        14        12        15     9        0.000000        0.079807         1
         4        14        12        15     9      180.000000       14.494837         2
         4        14        12        15     9        0.000000       -0.031038         3
         4        14        12        15     9      180.000000       -0.587430         4
         5         6         3        16     9        0.000000        0.741850         1
         5         6         3        16     9      180.000000        7.162001         2
         5         6         3        16     9        0.000000        0.279963         3
         5         6         3        16     9      180.000000       -0.088573         4
         5         8         1        10     9        0.000000       -1.015701         1
         5         8         1        10     9      180.000000        4.804066         2
         5         8         1        10     9        0.000000       -0.252365         3
         5         8         1        10     9      180.000000       -0.284907         4
         5         8         9        17     9        0.000000       -1.227826         1
         5         8         9        17     9      180.000000        9.662345         2
         5         8         9        17     9        0.000000       -0.205593         3
         5         8         9        17     9      180.000000        0.178658         4
         5         8         9        20     9        0.000000       -1.227826         1
         5         8         9        20     9      180.000000        9.662345         2
         5         8         9        20     9        0.000000       -0.205593         3
         5         8         9        20     9      180.000000        0.178658         4
         6         2         4        14     9        0.000000       -0.280117         1
         6         2         4        14     9      180.000000       13.503433         2
         6         2         4        14     9        0.000000       -0.000965         3
         6         2         4        14     9      180.000000       -0.312566         4
         6         3        16        28     9        0.000000       -8.979562         1
         6         3        16        28     9      180.000000       -1.227247         2
         6         3        16        28     9        0.000000        0.087833         3
         6         3        16        28     9      180.000000        0.017148         4
         6         3        16        42     9        0.000000        0.353809         1
         6         3        16        42     9      180.000000        0.304300         2
         6         3        16        42     9        0.000000        0.282155         3
         6         3        16        42     9      180.000000        0.099155         4
         6         3        16        43     9        0.000000        0.353809         1
         6         3        16        43     9      180.000000        0.304300         2
         6         3        16        43     9        0.000000        0.282155         3
         6         3        16        43     9      180.000000        0.099155         4
         6         5         8         9     9        0.000000        0.184154         1
         6         5         8         9     9      180.000000       24.542966         2
         6         5         8         9     9        0.000000        0.122818         3
         6         5         8         9     9      180.000000       -1.084633         4
         7        10         1         8     9        0.000000       -0.874086         1
         7        10         1         8     9      180.000000       11.410778         2
         7        10         1         8     9        0.000000       -0.375061         3
         7        10         1         8     9      180.000000       -0.293109         4
         7        12        14        36     9        0.000000        0.017726         1
         7        12        14        36     9      180.000000       21.137977         2
         7        12        14        36     9        0.000000        0.249400         3
         7        12        14        36     9      180.000000       -1.201163         4
         7        12        15        23     9        0.000000       -0.537029         1
         7        12        15        23     9      180.000000        4.077264         2
         7        12        15        23     9        0.000000        0.487371         3
         7        12        15        23     9      180.000000        0.004960         4
         7        12        15        27     9        0.000000       -1.295146         1
         7        12        15        27     9      180.000000        4.248732         2
         7        12        15        27     9        0.000000        0.409240         3
         7        12        15        27     9      180.000000        0.031725         4
         8         1         4        14     9        0.000000       -0.818299         1
         8         1         4        14     9      180.000000       12.078548         2
         8         1         4        14     9        0.000000       -1.656607         3
         8         1         4        14     9      180.000000       -0.262569         4
         8         1        10        40     9        0.000000       -0.135900         1
         8         1        10        40     9      180.000000        9.839127         2
         8         1        10        40     9        0.000000       -0.362100         3
         8         1        10        40     9      180.000000       -0.027759         4
         8         9        17        18     9        0.000000       -3.160918         1
         8         9        17        18     9      180.000000       -0.589006         2
         8         9        17        18     9        0.000000        0.354310         3
         8         9        17        18     9      180.000000       -0.069445         4
         8         9        17        44     9        0.000000        0.010062         1
         8         9        17        44     9      180.000000        0.194484         2
         8         9        17        44     9        0.000000        0.191535         3
         8         9        17        44     9      180.000000        0.106044         4
         8         9        17        45     9        0.000000        0.010062         1
         8         9        17        45     9      180.000000        0.194484         2
         8         9        17        45     9        0.000000        0.191535         3
         8         9        17        45     9      180.000000        0.106044         4
         8         9        20        19     9        0.000000       -3.160918         1
         8         9        20        19     9      180.000000       -0.589006         2
         8         9        20        19     9        0.000000        0.354310         3
         8         9        20        19     9      180.000000       -0.069445         4
         8         9        20        48     9        0.000000        0.010062         1
         8         9        20        48     9      180.000000        0.194484         2
         8         9        20        48     9        0.000000        0.191535         3
         8         9        20        48     9      180.000000        0.106044         4
         8         9        20        49     9        0.000000        0.010062         1
         8         9        20        49     9      180.000000        0.194484         2
         8         9        20        49     9        0.000000        0.191535         3
         8         9        20        49     9      180.000000        0.106044         4
         9         8         1        10     9        0.000000        0.588341         1
         9         8         1        10     9      180.000000        8.520403         2
         9         8         1        10     9        0.000000        0.493454         3
         9         8         1        10     9      180.000000       -0.484847         4
         9        17        18        11     9        0.000000       10.360260         1
         9        17        18        11     9      180.000000       -0.455638         2
         9        17        18        11     9        0.000000        1.252755         3
         9        17        18        11     9      180.000000       -0.383471         4
         9        17        18        22     9        0.000000        8.665241         1
         9        17        18        22     9      180.000000        3.003229         2
         9        17        18        22     9        0.000000        1.172798         3
         9        17        18        22     9      180.000000       -0.235254         4
         9        17        18        46     9        0.000000        0.208834         1
         9        17        18        46     9      180.000000       -1.298774         2
         9        17        18        46     9        0.000000        0.789454         3
         9        17        18        46     9      180.000000        0.143387         4
         9        20        19        11     9        0.000000       10.360260         1
         9        20        19        11     9      180.000000       -0.455638         2
         9        20        19        11     9        0.000000        1.252755         3
         9        20        19        11     9      180.000000       -0.383471         4
         9        20        19        21     9        0.000000        8.665241         1
         9        20        19        21     9      180.000000        3.003229         2
         9        20        19        21     9        0.000000        1.172798         3
         9        20        19        21     9      180.000000       -0.235254         4
         9        20        19        47     9        0.000000        0.208834         1
         9        20        19        47     9      180.000000       -1.298774         2
         9        20        19        47     9        0.000000        0.789454         3
         9        20        19        47     9      180.000000        0.143387         4
        10         1         4        14     9        0.000000       -0.295045         1
        10         1         4        14     9      180.000000       10.802362         2
        10         1         4        14     9        0.000000       -1.183676         3
        10         1         4        14     9      180.000000       -0.090931         4
        10         7        12        14     9        0.000000       -0.118755         1
        10         7        12        14     9      180.000000       18.066517         2
        10         7        12        14     9        0.000000        0.011438         3
        10         7        12        14     9      180.000000       -0.132963         4
        10         7        12        15     9        0.000000        0.377451         1
        10         7        12        15     9      180.000000       22.532615         2
        10         7        12        15     9        0.000000        1.151262         3
        10         7        12        15     9      180.000000       -0.833815         4
        11        18        17        44     9        0.000000       -0.109134         1
        11        18        17        44     9      180.000000        0.138444         2
        11        18        17        44     9        0.000000        0.755957         3
        11        18        17        44     9      180.000000       -0.087097         4
        11        18        17        45     9        0.000000       -0.109134         1
        11        18        17        45     9      180.000000        0.138444         2
        11        18        17        45     9        0.000000        0.755957         3
        11        18        17        45     9      180.000000       -0.087097         4
        11        18        22        21     9        0.000000       -6.720876         1
        11        18        22        21     9      180.000000       11.285324         2
        11        18        22        21     9        0.000000        0.310730         3
        11        18        22        21     9      180.000000       -2.781275         4
        11        18        22        52     9        0.000000       -0.566248         1
        11        18        22        52     9      180.000000        0.138173         2
        11        18        22        52     9        0.000000        0.237111         3
        11        18        22        52     9      180.000000       -0.093241         4
        11        18        22        53     9        0.000000       -0.566248         1
        11        18        22        53     9      180.000000        0.138173         2
        11        18        22        53     9        0.000000        0.237111         3
        11        18        22        53     9      180.000000       -0.093241         4
        11        19        20        48     9        0.000000       -0.109134         1
        11        19        20        48     9      180.000000        0.138444         2
        11        19        20        48     9        0.000000        0.755957         3
        11        19        20        48     9      180.000000       -0.087097         4
        11        19        20        49     9        0.000000       -0.109134         1
        11        19        20        49     9      180.000000        0.138444         2
        11        19        20        49     9        0.000000        0.755957         3
        11        19        20        49     9      180.000000       -0.087097         4
        11        19        21        22     9        0.000000       -6.720876         1
        11        19        21        22     9      180.000000       11.285324         2
        11        19        21        22     9        0.000000        0.310730         3
        11        19        21        22     9      180.000000       -2.781275         4
        11        19        21        50     9        0.000000       -0.566248         1
        11        19        21        50     9      180.000000        0.138173         2
        11        19        21        50     9        0.000000        0.237111         3
        11        19        21        50     9      180.000000       -0.093241         4
        11        19        21        51     9        0.000000       -0.566248         1
        11        19        21        51     9      180.000000        0.138173         2
        11        19        21        51     9        0.000000        0.237111         3
        11        19        21        51     9      180.000000       -0.093241         4
        12         7        10        40     9        0.000000        0.780817         1
        12         7        10        40     9      180.000000       23.760864         2
        12         7        10        40     9        0.000000        0.182274         3
        12         7        10        40     9      180.000000       -0.376721         4
        12        15        23        24     9        0.000000        0.123592         1
        12        15        23        24     9      180.000000       13.689134         2
        12        15        23        24     9        0.000000       -0.396314         3
        12        15        23        24     9      180.000000       -0.166473         4
        12        15        23        37     9        0.000000        0.078040         1
        12        15        23        37     9      180.000000       18.072261         2
        12        15        23        37     9        0.000000        0.463983         3
        12        15        23        37     9      180.000000       -0.727851         4
        12        15        27        26     9        0.000000       -0.010268         1
        12        15        27        26     9      180.000000       14.153081         2
        12        15        27        26     9        0.000000       -0.545033         3
        12        15        27        26     9      180.000000       -0.302652         4
        12        15        27        35     9        0.000000        0.002471         1
        12        15        27        35     9      180.000000       19.078451         2
        12        15        27        35     9        0.000000        0.354003         3
        12        15        27        35     9      180.000000       -0.849581         4
        13        28        16        42     9        0.000000       -0.073803         1
        13        28        16        42     9      180.000000       -0.066871         2
        13        28        16        42     9        0.000000        0.657242         3
        13        28        16        42     9      180.000000       -0.015345         4
        13        28        16        43     9        0.000000       -0.073803         1
        13        28        16        43     9      180.000000       -0.066871         2
        13        28        16        43     9        0.000000        0.657242         3
        13        28        16        43     9      180.000000       -0.015345         4
        13        28        29        30     9        0.000000       -2.108755         1
        13        28        29        30     9      180.000000        7.491038         2
        13        28        29        30     9        0.000000       -0.188602         3
        13        28        29        30     9      180.000000       -2.391301         4
        13        28        29        55     9        0.000000        0.094603         1
        13        28        29        55     9      180.000000       -0.425825         2
        13        28        29        55     9        0.000000        0.075129         3
        13        28        29        55     9      180.000000        0.067819         4
        13        28        29        56     9        0.000000        0.094603         1
        13        28        29        56     9      180.000000       -0.425825         2
        13        28        29        56     9        0.000000        0.075129         3
        13        28        29        56     9      180.000000        0.067819         4
        13        28        34        33     9        0.000000       -2.108755         1
        13        28        34        33     9      180.000000        7.491038         2
        13        28        34        33     9        0.000000       -0.188602         3
        13        28        34        33     9      180.000000       -2.391301         4
        13        28        34        64     9        0.000000        0.094603         1
        13        28        34        64     9      180.000000       -0.425825         2
        13        28        34        64     9        0.000000        0.075129         3
        13        28        34        64     9      180.000000        0.067819         4
        13        28        34        65     9        0.000000        0.094603         1
        13        28        34        65     9      180.000000       -0.425825         2
        13        28        34        65     9        0.000000        0.075129         3
        13        28        34        65     9      180.000000        0.067819         4
        13        31        30        29     9        0.000000        0.434766         1
        13        31        30        29     9      180.000000        4.357626         2
        13        31        30        29     9        0.000000        0.133467         3
        13        31        30        29     9      180.000000       -2.341043         4
        13        31        30        57     9        0.000000       -0.008631         1
        13        31        30        57     9      180.000000       -0.011369         2
        13        31        30        57     9        0.000000        0.205151         3
        13        31        30        57     9      180.000000        0.092459         4
        13        31        30        68     9        0.000000       -0.008631         1
        13        31        30        68     9      180.000000       -0.011369         2
        13        31        30        68     9        0.000000        0.205151         3
        13        31        30        68     9      180.000000        0.092459         4
        13        32        33        34     9        0.000000        0.434766         1
        13        32        33        34     9      180.000000        4.357626         2
        13        32        33        34     9        0.000000        0.133467         3
        13        32        33        34     9      180.000000       -2.341043         4
        13        32        33        62     9        0.000000       -0.008631         1
        13        32        33        62     9      180.000000       -0.011369         2
        13        32        33        62     9        0.000000        0.205151         3
        13        32        33        62     9      180.000000        0.092459         4
        13        32        33        63     9        0.000000       -0.008631         1
        13        32        33        63     9      180.000000       -0.011369         2
        13        32        33        63     9        0.000000        0.205151         3
        13        32        33        63     9      180.000000        0.092459         4
        14        12        15        23     9        0.000000       -0.017420         1
        14        12        15        23     9      180.000000        4.142678         2
        14        12        15        23     9        0.000000        0.152767         3
        14        12        15        23     9      180.000000        0.103568         4
        14        12        15        27     9        0.000000       -0.173159         1
        14        12        15        27     9      180.000000        4.293037         2
        14        12        15        27     9        0.000000        0.128421         3
        14        12        15        27     9      180.000000        0.137334         4
        15        12        14        36     9        0.000000        0.016784         1
        15        12        14        36     9      180.000000       22.104663         2
        15        12        14        36     9        0.000000        0.689724         3
        15        12        14        36     9      180.000000       -1.383893         4
        15        23        24        25     9        0.000000       -0.198796         1
        15        23        24        25     9      180.000000       17.045985         2
        15        23        24        25     9        0.000000       -1.597950         3
        15        23        24        25     9      180.000000       -0.323106         4
        15        23        24        39     9        0.000000        0.147472         1
        15        23        24        39     9      180.000000       12.505977         2
        15        23        24        39     9        0.000000       -0.621781         3
        15        23        24        39     9      180.000000        0.132026         4
        15        27        26        25     9        0.000000       -0.073480         1
        15        27        26        25     9      180.000000       14.469119         2
        15        27        26        25     9        0.000000       -0.991584         3
        15        27        26        25     9      180.000000       -0.250279         4
        15        27        26        69     9        0.000000        0.029405         1
        15        27        26        69     9      180.000000       16.134928         2
        15        27        26        69     9        0.000000        0.000113         3
        15        27        26        69     9      180.000000       -0.296065         4
        16        28        13        31     9        0.000000        2.084711         1
        16        28        13        31     9      180.000000       -0.091011         2
        16        28        13        31     9        0.000000        0.352059         3
        16        28        13        31     9      180.000000        0.348377         4
        16        28        13        32     9        0.000000        2.084711         1
        16        28        13        32     9      180.000000       -0.091011         2
        16        28        13        32     9        0.000000        0.352059         3
        16        28        13        32     9      180.000000        0.348377         4
        16        28        13        67     9        0.000000        4.624966         1
        16        28        13        67     9      180.000000       -2.076721         2
        16        28        13        67     9        0.000000        0.538400         3
        16        28        13        67     9      180.000000        0.191173         4
        16        28        29        30     9        0.000000        0.526956         1
        16        28        29        30     9      180.000000        0.488767         2
        16        28        29        30     9        0.000000        0.298389         3
        16        28        29        30     9      180.000000        0.100783         4
        16        28        29        55     9        0.000000       -0.066992         1
        16        28        29        55     9      180.000000        0.011833         2
        16        28        29        55     9        0.000000        0.402602         3
        16        28        29        55     9      180.000000        0.011153         4
        16        28        29        56     9        0.000000       -0.066992         1
        16        28        29        56     9      180.000000        0.011833         2
        16        28        29        56     9        0.000000        0.402602         3
        16        28        29        56     9      180.000000        0.011153         4
        16        28        34        33     9        0.000000        0.526956         1
        16        28        34        33     9      180.000000        0.488767         2
        16        28        34        33     9        0.000000        0.298389         3
        16        28        34        33     9      180.000000        0.100783         4
        16        28        34        64     9        0.000000       -0.066992         1
        16        28        34        64     9      180.000000        0.011833         2
        16        28        34        64     9        0.000000        0.402602         3
        16        28        34        64     9      180.000000        0.011153         4
        16        28        34        65     9        0.000000       -0.066992         1
        16        28        34        65     9      180.000000        0.011833         2
        16        28        34        65     9        0.000000        0.402602         3
        16        28        34        65     9      180.000000        0.011153         4
        17         9        20        19     9        0.000000        3.153127         1
        17         9        20        19     9      180.000000       -3.348937         2
        17         9        20        19     9        0.000000        0.519549         3
        17         9        20        19     9      180.000000        0.090461         4
        17         9        20        48     9        0.000000       -0.428027         1
        17         9        20        48     9      180.000000        0.276117         2
        17         9        20        48     9        0.000000        0.876566         3
        17         9        20        48     9      180.000000       -0.010241         4
        17         9        20        49     9        0.000000       -0.428027         1
        17         9        20        49     9      180.000000        0.276117         2
        17         9        20        49     9        0.000000        0.876566         3
        17         9        20        49     9      180.000000       -0.010241         4
        17        18        11        19     9        0.000000       -0.856050         1
        17        18        11        19     9      180.000000       -3.154670         2
        17        18        11        19     9        0.000000        0.341030         3
        17        18        11        19     9      180.000000       -0.429377         4
        17        18        11        41     9        0.000000        3.791343         1
        17        18        11        41     9      180.000000        0.915306         2
        17        18        11        41     9        0.000000        0.458893         3
        17        18        11        41     9      180.000000        0.414023         4
        17        18        11        66     9        0.000000        3.791343         1
        17        18        11        66     9      180.000000        0.915306         2
        17        18        11        66     9        0.000000        0.458893         3
        17        18        11        66     9      180.000000        0.414023         4
        17        18        22        21     9        0.000000        0.958471         1
        17        18        22        21     9      180.000000        1.828225         2
        17        18        22        21     9        0.000000        0.287884         3
        17        18        22        21     9      180.000000       -0.116139         4
        17        18        22        52     9        0.000000       -0.152771         1
        17        18        22        52     9      180.000000       -0.126016         2
        17        18        22        52     9        0.000000        0.292799         3
        17        18        22        52     9      180.000000        0.022367         4
        17        18        22        53     9        0.000000       -0.152771         1
        17        18        22        53     9      180.000000       -0.126016         2
        17        18        22        53     9        0.000000        0.292799         3
        17        18        22        53     9      180.000000        0.022367         4
        18        11        19        20     9        0.000000       -0.856050         1
        18        11        19        20     9      180.000000       -3.154670         2
        18        11        19        20     9        0.000000        0.341030         3
        18        11        19        20     9      180.000000       -0.429377         4
        18        11        19        21     9        0.000000       -8.011946         1
        18        11        19        21     9      180.000000        8.433476         2
        18        11        19        21     9        0.000000        0.257643         3
        18        11        19        21     9      180.000000       -4.599935         4
        18        11        19        47     9        0.000000       -1.122176         1
        18        11        19        47     9      180.000000       -5.819555         2
        18        11        19        47     9        0.000000        0.140568         3
        18        11        19        47     9      180.000000        0.114692         4
        18        17         9        20     9        0.000000        3.153127         1
        18        17         9        20     9      180.000000       -3.348937         2
        18        17         9        20     9        0.000000        0.519549         3
        18        17         9        20     9      180.000000        0.090461         4
        18        22        21        19     9        0.000000       -0.441188         1
        18        22        21        19     9      180.000000        1.461405         2
        18        22        21        19     9        0.000000        0.090585         3
        18        22        21        19     9      180.000000       -1.237684         4
        18        22        21        50     9        0.000000       -0.040956         1
        18        22        21        50     9      180.000000       -0.134546         2
        18        22        21        50     9        0.000000        0.175830         3
        18        22        21        50     9      180.000000        0.068006         4
        18        22        21        51     9        0.000000       -0.040956         1
        18        22        21        51     9      180.000000       -0.134546         2
        18        22        21        51     9        0.000000        0.175830         3
        18        22        21        51     9      180.000000        0.068006         4
        19        11        18        22     9        0.000000       -8.011946         1
        19        11        18        22     9      180.000000        8.433476         2
        19        11        18        22     9        0.000000        0.257643         3
        19        11        18        22     9      180.000000       -4.599935         4
        19        11        18        46     9        0.000000       -1.122176         1
        19        11        18        46     9      180.000000       -5.819555         2
        19        11        18        46     9        0.000000        0.140568         3
        19        11        18        46     9      180.000000        0.114692         4
        19        21        22        52     9        0.000000       -0.040956         1
        19        21        22        52     9      180.000000       -0.134546         2
        19        21        22        52     9        0.000000        0.175830         3
        19        21        22        52     9      180.000000        0.068006         4
        19        21        22        53     9        0.000000       -0.040956         1
        19        21        22        53     9      180.000000       -0.134546         2
        19        21        22        53     9        0.000000        0.175830         3
        19        21        22        53     9      180.000000        0.068006         4
        20         9        17        44     9        0.000000       -0.428027         1
        20         9        17        44     9      180.000000        0.276117         2
        20         9        17        44     9        0.000000        0.876566         3
        20         9        17        44     9      180.000000       -0.010241         4
        20         9        17        45     9        0.000000       -0.428027         1
        20         9        17        45     9      180.000000        0.276117         2
        20         9        17        45     9        0.000000        0.876566         3
        20         9        17        45     9      180.000000       -0.010241         4
        20        19        11        41     9        0.000000        3.791343         1
        20        19        11        41     9      180.000000        0.915306         2
        20        19        11        41     9        0.000000        0.458893         3
        20        19        11        41     9      180.000000        0.414023         4
        20        19        11        66     9        0.000000        3.791343         1
        20        19        11        66     9      180.000000        0.915306         2
        20        19        11        66     9        0.000000        0.458893         3
        20        19        11        66     9      180.000000        0.414023         4
        20        19        21        22     9        0.000000        0.958471         1
        20        19        21        22     9      180.000000        1.828225         2
        20        19        21        22     9        0.000000        0.287884         3
        20        19        21        22     9      180.000000       -0.116139         4
        20        19        21        50     9        0.000000       -0.152771         1
        20        19        21        50     9      180.000000       -0.126016         2
        20        19        21        50     9        0.000000        0.292799         3
        20        19        21        50     9      180.000000        0.022367         4
        20        19        21        51     9        0.000000       -0.152771         1
        20        19        21        51     9      180.000000       -0.126016         2
        20        19        21        51     9        0.000000        0.292799         3
        20        19        21        51     9      180.000000        0.022367         4
        21        19        11        41     9        0.000000       -3.138482         1
        21        19        11        41     9      180.000000        2.167024         2
        21        19        11        41     9        0.000000        0.241529         3
        21        19        11        41     9      180.000000       -0.244107         4
        21        19        11        66     9        0.000000       -3.138482         1
        21        19        11        66     9      180.000000        2.167024         2
        21        19        11        66     9        0.000000        0.241529         3
        21        19        11        66     9      180.000000       -0.244107         4
        21        19        20        48     9        0.000000       -0.249238         1
        21        19        20        48     9      180.000000        0.008704         2
        21        19        20        48     9        0.000000        0.634047         3
        21        19        20        48     9      180.000000        0.041270         4
        21        19        20        49     9        0.000000       -0.249238         1
        21        19        20        49     9      180.000000        0.008704         2
        21        19        20        49     9        0.000000        0.634047         3
        21        19        20        49     9      180.000000        0.041270         4
        21        22        18        46     9        0.000000        0.718089         1
        21        22        18        46     9      180.000000        0.470471         2
        21        22        18        46     9        0.000000        0.272978         3
        21        22        18        46     9      180.000000        0.606890         4
        22        18        11        41     9        0.000000       -3.138482         1
        22        18        11        41     9      180.000000        2.167024         2
        22        18        11        41     9        0.000000        0.241529         3
        22        18        11        41     9      180.000000       -0.244107         4
        22        18        11        66     9        0.000000       -3.138482         1
        22        18        11        66     9      180.000000        2.167024         2
        22        18        11        66     9        0.000000        0.241529         3
        22        18        11        66     9      180.000000       -0.244107         4
        22        18        17        44     9        0.000000       -0.249238         1
        22        18        17        44     9      180.000000        0.008704         2
        22        18        17        44     9        0.000000        0.634047         3
        22        18        17        44     9      180.000000        0.041270         4
        22        18        17        45     9        0.000000       -0.249238         1
        22        18        17        45     9      180.000000        0.008704         2
        22        18        17        45     9        0.000000        0.634047         3
        22        18        17        45     9      180.000000        0.041270         4
        22        21        19        47     9        0.000000        0.718089         1
        22        21        19        47     9      180.000000        0.470471         2
        22        21        19        47     9        0.000000        0.272978         3
        22        21        19        47     9      180.000000        0.606890         4
        23        15        27        26     9        0.000000       -0.213949         1
        23        15        27        26     9      180.000000       16.538806         2
        23        15        27        26     9        0.000000       -1.832718         3
        23        15        27        26     9      180.000000       -0.350100         4
        23        15        27        35     9        0.000000        0.752607         1
        23        15        27        35     9      180.000000       21.434116         2
        23        15        27        35     9        0.000000        0.581750         3
        23        15        27        35     9      180.000000       -0.573639         4
        23        24        25        26     9        0.000000       -0.166041         1
        23        24        25        26     9      180.000000       17.058779         2
        23        24        25        26     9        0.000000       -1.584628         3
        23        24        25        26     9      180.000000       -0.356102         4
        23        24        25        38     9        0.000000        0.428172         1
        23        24        25        38     9      180.000000       22.384503         2
        23        24        25        38     9        0.000000        0.440204         3
        23        24        25        38     9      180.000000       -0.461023         4
        24        23        15        27     9        0.000000       -0.169806         1
        24        23        15        27     9      180.000000       16.540049         2
        24        23        15        27     9        0.000000       -1.376897         3
        24        23        15        27     9      180.000000       -0.385017         4
        24        25        26        27     9        0.000000        0.010561         1
        24        25        26        27     9      180.000000       14.283282         2
        24        25        26        27     9        0.000000       -0.716319         3
        24        25        26        27     9      180.000000       -0.209646         4
        24        25        26        69     9        0.000000        0.300763         1
        24        25        26        69     9      180.000000       16.068273         2
        24        25        26        69     9        0.000000        0.088218         3
        24        25        26        69     9      180.000000       -0.258491         4
        25        24        23        37     9        0.000000        0.465063         1
        25        24        23        37     9      180.000000       23.562399         2
        25        24        23        37     9        0.000000        0.720690         3
        25        24        23        37     9      180.000000       -0.777837         4
        25        26        27        35     9        0.000000        0.795886         1
        25        26        27        35     9      180.000000       19.137564         2
        25        26        27        35     9        0.000000        0.930901         3
        25        26        27        35     9      180.000000       -0.597947         4
        25        26        69        54     9        0.000000        2.470694         1
        25        26        69        54     9      180.000000        2.950049         2
        25        26        69        54     9        0.000000        0.382042         3
        25        26        69        54     9      180.000000        0.027490         4
        26        25        24        39     9        0.000000        0.124040         1
        26        25        24        39     9      180.000000       12.659522         2
        26        25        24        39     9        0.000000       -0.449158         3
        26        25        24        39     9      180.000000        0.147043         4
        27        15        23        37     9        0.000000        0.676879         1
        27        15        23        37     9      180.000000       21.511621         2
        27        15        23        37     9        0.000000        0.773771         3
        27        15        23        37     9      180.000000       -0.702802         4
        27        26        25        38     9        0.000000        0.431490         1
        27        26        25        38     9      180.000000       17.875135         2
        27        26        25        38     9        0.000000        0.766335         3
        27        26        25        38     9      180.000000       -0.414466         4
        27        26        69        54     9        0.000000        3.079314         1
        27        26        69        54     9      180.000000        2.900595         2
        27        26        69        54     9        0.000000        0.395980         3
        27        26        69        54     9      180.000000        0.036453         4
        28        13        31        30     9        0.000000       -3.044893         1
        28        13        31        30     9      180.000000        9.338759         2
        28        13        31        30     9        0.000000       -0.315300         3
        28        13        31        30     9      180.000000       -3.464296         4
        28        13        31        58     9        0.000000        0.193900         1
        28        13        31        58     9      180.000000       -0.208698         2
        28        13        31        58     9        0.000000        0.099631         3
        28        13        31        58     9      180.000000        0.068572         4
        28        13        31        59     9        0.000000        0.193900         1
        28        13        31        59     9      180.000000       -0.208698         2
        28        13        31        59     9        0.000000        0.099631         3
        28        13        31        59     9      180.000000        0.068572         4
        28        13        32        33     9        0.000000       -3.044893         1
        28        13        32        33     9      180.000000        9.338759         2
        28        13        32        33     9        0.000000       -0.315300         3
        28        13        32        33     9      180.000000       -3.464296         4
        28        13        32        60     9        0.000000        0.193900         1
        28        13        32        60     9      180.000000       -0.208698         2
        28        13        32        60     9        0.000000        0.099631         3
        28        13        32        60     9      180.000000        0.068572         4
        28        13        32        61     9        0.000000        0.193900         1
        28        13        32        61     9      180.000000       -0.208698         2
        28        13        32        61     9        0.000000        0.099631         3
        28        13        32        61     9      180.000000        0.068572         4
        28        29        30        31     9        0.000000       -0.064964         1
        28        29        30        31     9      180.000000        5.163996         2
        28        29        30        31     9        0.000000       -0.259114         3
        28        29        30        31     9      180.000000       -2.114700         4
        28        29        30        57     9        0.000000       -0.039210         1
        28        29        30        57     9      180.000000        0.015249         2
        28        29        30        57     9        0.000000        0.071260         3
        28        29        30        57     9      180.000000        0.124894         4
        28        29        30        68     9        0.000000       -0.039210         1
        28        29        30        68     9      180.000000        0.015249         2
        28        29        30        68     9        0.000000        0.071260         3
        28        29        30        68     9      180.000000        0.124894         4
        28        34        33        32     9        0.000000       -0.064964         1
        28        34        33        32     9      180.000000        5.163996         2
        28        34        33        32     9        0.000000       -0.259114         3
        28        34        33        32     9      180.000000       -2.114700         4
        28        34        33        62     9        0.000000       -0.039210         1
        28        34        33        62     9      180.000000        0.015249         2
        28        34        33        62     9        0.000000        0.071260         3
        28        34        33        62     9      180.000000        0.124894         4
        28        34        33        63     9        0.000000       -0.039210         1
        28        34        33        63     9      180.000000        0.015249         2
        28        34        33        63     9        0.000000        0.071260         3
        28        34        33        63     9      180.000000        0.124894         4
        29        28        13        31     9        0.000000       -3.763027         1
        29        28        13        31     9      180.000000        1.261989         2
        29        28        13        31     9        0.000000        0.139848         3
        29        28        13        31     9      180.000000       -0.666814         4
        29        28        13        32     9        0.000000       -3.763027         1
        29        28        13        32     9      180.000000        1.261989         2
        29        28        13        32     9        0.000000        0.139848         3
        29        28        13        32     9      180.000000       -0.666814         4
        29        28        13        67     9        0.000000        3.640170         1
        29        28        13        67     9      180.000000       -0.987475         2
        29        28        13        67     9        0.000000        0.313392         3
        29        28        13        67     9      180.000000        0.422653         4
        29        28        16        42     9        0.000000        0.108901         1
        29        28        16        42     9      180.000000        0.270249         2
        29        28        16        42     9        0.000000        0.700855         3
        29        28        16        42     9      180.000000        0.068001         4
        29        28        16        43     9        0.000000        0.108901         1
        29        28        16        43     9      180.000000        0.270249         2
        29        28        16        43     9        0.000000        0.700855         3
        29        28        16        43     9      180.000000        0.068001         4
        29        28        34        33     9        0.000000       -0.420261         1
        29        28        34        33     9      180.000000        0.890676         2
        29        28        34        33     9        0.000000        0.163161         3
        29        28        34        33     9      180.000000       -0.111912         4
        29        28        34        64     9        0.000000        0.025135         1
        29        28        34        64     9      180.000000       -0.053945         2
        29        28        34        64     9        0.000000        0.386393         3
        29        28        34        64     9      180.000000       -0.015978         4
        29        28        34        65     9        0.000000        0.025135         1
        29        28        34        65     9      180.000000       -0.053945         2
        29        28        34        65     9        0.000000        0.386393         3
        29        28        34        65     9      180.000000       -0.015978         4
        29        30        31        58     9        0.000000       -0.000511         1
        29        30        31        58     9      180.000000       -0.134894         2
        29        30        31        58     9        0.000000        0.226239         3
        29        30        31        58     9      180.000000        0.061199         4
        29        30        31        59     9        0.000000       -0.000511         1
        29        30        31        59     9      180.000000       -0.134894         2
        29        30        31        59     9        0.000000        0.226239         3
        29        30        31        59     9      180.000000        0.061199         4
        30        29        28        34     9        0.000000       -0.420261         1
        30        29        28        34     9      180.000000        0.890676         2
        30        29        28        34     9        0.000000        0.163161         3
        30        29        28        34     9      180.000000       -0.111912         4
        30        31        13        32     9        0.000000       -1.900295         1
        30        31        13        32     9      180.000000        0.208105         2
        30        31        13        32     9        0.000000        0.289953         3
        30        31        13        32     9      180.000000        0.046903         4
        30        31        13        67     9        0.000000        5.007748         1
        30        31        13        67     9      180.000000       -2.084142         2
        30        31        13        67     9        0.000000        0.426172         3
        30        31        13        67     9      180.000000        0.404400         4
        31        13        28        34     9        0.000000       -3.763027         1
        31        13        28        34     9      180.000000        1.261989         2
        31        13        28        34     9        0.000000        0.139848         3
        31        13        28        34     9      180.000000       -0.666814         4
        31        13        32        33     9        0.000000       -1.900295         1
        31        13        32        33     9      180.000000        0.208105         2
        31        13        32        33     9        0.000000        0.289953         3
        31        13        32        33     9      180.000000        0.046903         4
        31        13        32        60     9        0.000000       -0.008024         1
        31        13        32        60     9      180.000000        0.063908         2
        31        13        32        60     9        0.000000        0.510806         3
        31        13        32        60     9      180.000000       -0.056085         4
        31        13        32        61     9        0.000000       -0.008024         1
        31        13        32        61     9      180.000000        0.063908         2
        31        13        32        61     9        0.000000        0.510806         3
        31        13        32        61     9      180.000000       -0.056085         4
        31        30        29        55     9        0.000000       -0.007944         1
        31        30        29        55     9      180.000000       -0.102241         2
        31        30        29        55     9        0.000000        0.136371         3
        31        30        29        55     9      180.000000        0.077948         4
        31        30        29        56     9        0.000000       -0.007944         1
        31        30        29        56     9      180.000000       -0.102241         2
        31        30        29        56     9        0.000000        0.136371         3
        31        30        29        56     9      180.000000        0.077948         4
        32        13        28        34     9        0.000000       -3.763027         1
        32        13        28        34     9      180.000000        1.261989         2
        32        13        28        34     9        0.000000        0.139848         3
        32        13        28        34     9      180.000000       -0.666814         4
        32        13        31        58     9        0.000000       -0.008024         1
        32        13        31        58     9      180.000000        0.063908         2
        32        13        31        58     9        0.000000        0.510806         3
        32        13        31        58     9      180.000000       -0.056085         4
        32        13        31        59     9        0.000000       -0.008024         1
        32        13        31        59     9      180.000000        0.063908         2
        32        13        31        59     9        0.000000        0.510806         3
        32        13        31        59     9      180.000000       -0.056085         4
        32        33        34        64     9        0.000000       -0.007944         1
        32        33        34        64     9      180.000000       -0.102241         2
        32        33        34        64     9        0.000000        0.136371         3
        32        33        34        64     9      180.000000        0.077948         4
        32        33        34        65     9        0.000000       -0.007944         1
        32        33        34        65     9      180.000000       -0.102241         2
        32        33        34        65     9        0.000000        0.136371         3
        32        33        34        65     9      180.000000        0.077948         4
        33        32        13        67     9        0.000000        5.007748         1
        33        32        13        67     9      180.000000       -2.084142         2
        33        32        13        67     9        0.000000        0.426172         3
        33        32        13        67     9      180.000000        0.404400         4
        34        28        13        67     9        0.000000        3.640170         1
        34        28        13        67     9      180.000000       -0.987475         2
        34        28        13        67     9        0.000000        0.313392         3
        34        28        13        67     9      180.000000        0.422653         4
        34        28        16        42     9        0.000000        0.108901         1
        34        28        16        42     9      180.000000        0.270249         2
        34        28        16        42     9        0.000000        0.700855         3
        34        28        16        42     9      180.000000        0.068001         4
        34        28        16        43     9        0.000000        0.108901         1
        34        28        16        43     9      180.000000        0.270249         2
        34        28        16        43     9        0.000000        0.700855         3
        34        28        16        43     9      180.000000        0.068001         4
        34        28        29        55     9        0.000000        0.025135         1
        34        28        29        55     9      180.000000       -0.053945         2
        34        28        29        55     9        0.000000        0.386393         3
        34        28        29        55     9      180.000000       -0.015978         4
        34        28        29        56     9        0.000000        0.025135         1
        34        28        29        56     9      180.000000       -0.053945         2
        34        28        29        56     9        0.000000        0.386393         3
        34        28        29        56     9      180.000000       -0.015978         4
        34        33        32        60     9        0.000000       -0.000511         1
        34        33        32        60     9      180.000000       -0.134894         2
        34        33        32        60     9        0.000000        0.226239         3
        34        33        32        60     9      180.000000        0.061199         4
        34        33        32        61     9        0.000000       -0.000511         1
        34        33        32        61     9      180.000000       -0.134894         2
        34        33        32        61     9        0.000000        0.226239         3
        34        33        32        61     9      180.000000        0.061199         4
        35        27        26        69     9        0.000000       -0.324635         1
        35        27        26        69     9      180.000000       22.900269         2
        35        27        26        69     9        0.000000        0.199371         3
        35        27        26        69     9      180.000000       -1.016228         4
        37        23        24        39     9        0.000000        0.309140         1
        37        23        24        39     9      180.000000       16.169210         2
        37        23        24        39     9        0.000000        0.200426         3
        37        23        24        39     9      180.000000        0.211356         4
        38        25        24        39     9        0.000000        0.388914         1
        38        25        24        39     9      180.000000       15.561483         2
        38        25        24        39     9        0.000000        0.197476         3
        38        25        24        39     9      180.000000        0.298035         4
        38        25        26        69     9        0.000000       -0.228646         1
        38        25        26        69     9      180.000000       22.346651         2
        38        25        26        69     9        0.000000        0.339393         3
        38        25        26        69     9      180.000000       -1.017170         4
        41        11        18        46     9        0.000000       -0.497211         1
        41        11        18        46     9      180.000000        2.354124         2
        41        11        18        46     9        0.000000        0.397744         3
        41        11        18        46     9      180.000000        0.067520         4
        41        11        19        47     9        0.000000       -0.497211         1
        41        11        19        47     9      180.000000        2.354124         2
        41        11        19        47     9        0.000000        0.397744         3
        41        11        19        47     9      180.000000        0.067520         4
        44        17        18        46     9        0.000000        0.154148         1
        44        17        18        46     9      180.000000        0.583964         2
        44        17        18        46     9        0.000000        0.589180         3
        44        17        18        46     9      180.000000       -0.059466         4
        45        17        18        46     9        0.000000        0.154148         1
        45        17        18        46     9      180.000000        0.583964         2
        45        17        18        46     9        0.000000        0.589180         3
        45        17        18        46     9      180.000000       -0.059466         4
        46        18        11        66     9        0.000000       -0.497211         1
        46        18        11        66     9      180.000000        2.354124         2
        46        18        11        66     9        0.000000        0.397744         3
        46        18        11        66     9      180.000000        0.067520         4
        46        18        22        52     9        0.000000       -0.104800         1
        46        18        22        52     9      180.000000        0.054432         2
        46        18        22        52     9        0.000000        0.500456         3
        46        18        22        52     9      180.000000       -0.079027         4
        46        18        22        53     9        0.000000       -0.104800         1
        46        18        22        53     9      180.000000        0.054432         2
        46        18        22        53     9        0.000000        0.500456         3
        46        18        22        53     9      180.000000       -0.079027         4
        47        19        11        66     9        0.000000       -0.497211         1
        47        19        11        66     9      180.000000        2.354124         2
        47        19        11        66     9        0.000000        0.397744         3
        47        19        11        66     9      180.000000        0.067520         4
        47        19        20        48     9        0.000000        0.154148         1
        47        19        20        48     9      180.000000        0.583964         2
        47        19        20        48     9        0.000000        0.589180         3
        47        19        20        48     9      180.000000       -0.059466         4
        47        19        20        49     9        0.000000        0.154148         1
        47        19        20        49     9      180.000000        0.583964         2
        47        19        20        49     9        0.000000        0.589180         3
        47        19        20        49     9      180.000000       -0.059466         4
        47        19        21        50     9        0.000000       -0.104800         1
        47        19        21        50     9      180.000000        0.054432         2
        47        19        21        50     9        0.000000        0.500456         3
        47        19        21        50     9      180.000000       -0.079027         4
        47        19        21        51     9        0.000000       -0.104800         1
        47        19        21        51     9      180.000000        0.054432         2
        47        19        21        51     9        0.000000        0.500456         3
        47        19        21        51     9      180.000000       -0.079027         4
        50        21        22        52     9        0.000000        0.035024         1
        50        21        22        52     9      180.000000        0.050947         2
        50        21        22        52     9        0.000000        0.415366         3
        50        21        22        52     9      180.000000       -0.045840         4
        50        21        22        53     9        0.000000        0.035024         1
        50        21        22        53     9      180.000000        0.050947         2
        50        21        22        53     9        0.000000        0.415366         3
        50        21        22        53     9      180.000000       -0.045840         4
        51        21        22        52     9        0.000000        0.035024         1
        51        21        22        52     9      180.000000        0.050947         2
        51        21        22        52     9        0.000000        0.415366         3
        51        21        22        52     9      180.000000       -0.045840         4
        51        21        22        53     9        0.000000        0.035024         1
        51        21        22        53     9      180.000000        0.050947         2
        51        21        22        53     9        0.000000        0.415366         3
        51        21        22        53     9      180.000000       -0.045840         4
        55        29        30        57     9        0.000000       -0.027285         1
        55        29        30        57     9      180.000000        0.043835         2
        55        29        30        57     9        0.000000        0.309493         3
        55        29        30        57     9      180.000000        0.011582         4
        55        29        30        68     9        0.000000       -0.027285         1
        55        29        30        68     9      180.000000        0.043835         2
        55        29        30        68     9        0.000000        0.309493         3
        55        29        30        68     9      180.000000        0.011582         4
        56        29        30        57     9        0.000000       -0.027285         1
        56        29        30        57     9      180.000000        0.043835         2
        56        29        30        57     9        0.000000        0.309493         3
        56        29        30        57     9      180.000000        0.011582         4
        56        29        30        68     9        0.000000       -0.027285         1
        56        29        30        68     9      180.000000        0.043835         2
        56        29        30        68     9        0.000000        0.309493         3
        56        29        30        68     9      180.000000        0.011582         4
        57        30        31        58     9        0.000000       -0.030722         1
        57        30        31        58     9      180.000000        0.015399         2
        57        30        31        58     9        0.000000        0.389941         3
        57        30        31        58     9      180.000000       -0.018191         4
        57        30        31        59     9        0.000000       -0.030722         1
        57        30        31        59     9      180.000000        0.015399         2
        57        30        31        59     9        0.000000        0.389941         3
        57        30        31        59     9      180.000000       -0.018191         4
        58        31        13        67     9        0.000000       -0.114966         1
        58        31        13        67     9      180.000000        0.715885         2
        58        31        13        67     9        0.000000        0.487733         3
        58        31        13        67     9      180.000000        0.027389         4
        58        31        30        68     9        0.000000       -0.030722         1
        58        31        30        68     9      180.000000        0.015399         2
        58        31        30        68     9        0.000000        0.389941         3
        58        31        30        68     9      180.000000       -0.018191         4
        59        31        13        67     9        0.000000       -0.114966         1
        59        31        13        67     9      180.000000        0.715885         2
        59        31        13        67     9        0.000000        0.487733         3
        59        31        13        67     9      180.000000        0.027389         4
        59        31        30        68     9        0.000000       -0.030722         1
        59        31        30        68     9      180.000000        0.015399         2
        59        31        30        68     9        0.000000        0.389941         3
        59        31        30        68     9      180.000000       -0.018191         4
        60        32        13        67     9        0.000000       -0.114966         1
        60        32        13        67     9      180.000000        0.715885         2
        60        32        13        67     9        0.000000        0.487733         3
        60        32        13        67     9      180.000000        0.027389         4
        60        32        33        62     9        0.000000       -0.030722         1
        60        32        33        62     9      180.000000        0.015399         2
        60        32        33        62     9        0.000000        0.389941         3
        60        32        33        62     9      180.000000       -0.018191         4
        60        32        33        63     9        0.000000       -0.030722         1
        60        32        33        63     9      180.000000        0.015399         2
        60        32        33        63     9        0.000000        0.389941         3
        60        32        33        63     9      180.000000       -0.018191         4
        61        32        13        67     9        0.000000       -0.114966         1
        61        32        13        67     9      180.000000        0.715885         2
        61        32        13        67     9        0.000000        0.487733         3
        61        32        13        67     9      180.000000        0.027389         4
        61        32        33        62     9        0.000000       -0.030722         1
        61        32        33        62     9      180.000000        0.015399         2
        61        32        33        62     9        0.000000        0.389941         3
        61        32        33        62     9      180.000000       -0.018191         4
        61        32        33        63     9        0.000000       -0.030722         1
        61        32        33        63     9      180.000000        0.015399         2
        61        32        33        63     9        0.000000        0.389941         3
        61        32        33        63     9      180.000000       -0.018191         4
        62        33        34        64     9        0.000000       -0.027285         1
        62        33        34        64     9      180.000000        0.043835         2
        62        33        34        64     9        0.000000        0.309493         3
        62        33        34        64     9      180.000000        0.011582         4
        62        33        34        65     9        0.000000       -0.027285         1
        62        33        34        65     9      180.000000        0.043835         2
        62        33        34        65     9        0.000000        0.309493         3
        62        33        34        65     9      180.000000        0.011582         4
        63        33        34        64     9        0.000000       -0.027285         1
        63        33        34        64     9      180.000000        0.043835         2
        63        33        34        64     9        0.000000        0.309493         3
        63        33        34        64     9      180.000000        0.011582         4
        63        33        34        65     9        0.000000       -0.027285         1
        63        33        34        65     9      180.000000        0.043835         2
        63        33        34        65     9        0.000000        0.309493         3
        63        33        34        65     9      180.000000        0.011582         4

[ dihedrals ] ; impropers
;       ai        aj        ak        al funct           phase               k        pn
         6         2         3         5     4      180.000000       26.953280         2
         6         3         5         2     4      180.000000       26.953280         2
         6         5         2         3     4      180.000000       26.953280         2
         8         1         5         9     4      180.000000        8.565568         2
         8         5         9         1     4      180.000000        8.565568         2
         8         9         1         5     4      180.000000        8.565568         2
        10         1         7        40     4      180.000000        2.042159         2
        10         7        40         1     4      180.000000        2.042159         2
        10        40         1         7     4      180.000000        2.042159         2
        12         7        14        15     4      180.000000        2.238444         2
        12        14        15         7     4      180.000000        2.238444         2
        12        15         7        14     4      180.000000        2.238444         2

[ pairs ]
;       ai        aj funct
         1         6     1
         1        12     1
         1        17     1
         1        20     1
         1        36     1
         2         8     1
         2        10     1
         2        12     1
         2        16     1
         2        36     1
         3         4     1
         3         8     1
         3        13     1
         3        29     1
         3        34     1
         4         5     1
         4         7     1
         4         9     1
         4        15     1
         4        40     1
         5        10     1
         5        16     1
         5        17     1
         5        20     1
         6         9     1
         6        14     1
         6        28     1
         6        42     1
         6        43     1
         7         8     1
         7        23     1
         7        27     1
         7        36     1
         8        14     1
         8        18     1
         8        19     1
         8        40     1
         8        44     1
         8        45     1
         8        48     1
         8        49     1
         9        10     1
         9        11     1
         9        21     1
         9        22     1
         9        46     1
         9        47     1
        10        14     1
        10        15     1
        11        44     1
        11        45     1
        11        48     1
        11        49     1
        11        50     1
        11        51     1
        11        52     1
        11        53     1
        12        24     1
        12        26     1
        12        35     1
        12        37     1
        12        40     1
        13        42     1
        13        43     1
        13        55     1
        13        56     1
        13        57     1
        13        62     1
        13        63     1
        13        64     1
        13        65     1
        13        68     1
        14        23     1
        14        27     1
        15        25     1
        15        36     1
        15        39     1
        15        69     1
        16        30     1
        16        31     1
        16        32     1
        16        33     1
        16        55     1
        16        56     1
        16        64     1
        16        65     1
        16        67     1
        17        19     1
        17        21     1
        17        41     1
        17        48     1
        17        49     1
        17        52     1
        17        53     1
        17        66     1
        18        20     1
        18        47     1
        18        50     1
        18        51     1
        19        46     1
        19        52     1
        19        53     1
        20        22     1
        20        41     1
        20        44     1
        20        45     1
        20        50     1
        20        51     1
        20        66     1
        21        41     1
        21        46     1
        21        48     1
        21        49     1
        21        66     1
        22        41     1
        22        44     1
        22        45     1
        22        47     1
        22        66     1
        23        26     1
        23        35     1
        23        38     1
        24        27     1
        24        69     1
        25        35     1
        25        37     1
        25        54     1
        26        39     1
        27        37     1
        27        38     1
        27        54     1
        28        57     1
        28        58     1
        28        59     1
        28        60     1
        28        61     1
        28        62     1
        28        63     1
        28        68     1
        29        32     1
        29        33     1
        29        42     1
        29        43     1
        29        58     1
        29        59     1
        29        64     1
        29        65     1
        29        67     1
        30        32     1
        30        34     1
        30        67     1
        31        33     1
        31        34     1
        31        55     1
        31        56     1
        31        60     1
        31        61     1
        32        58     1
        32        59     1
        32        64     1
        32        65     1
        33        67     1
        34        42     1
        34        43     1
        34        55     1
        34        56     1
        34        60     1
        34        61     1
        34        67     1
        35        69     1
        37        39     1
        38        39     1
        38        69     1
        41        46     1
        41        47     1
        44        46     1
        45        46     1
        46        52     1
        46        53     1
        46        66     1
        47        48     1
        47        49     1
        47        50     1
        47        51     1
        47        66     1
        50        52     1
        50        53     1
        51        52     1
        51        53     1
        55        57     1
        55        68     1
        56        57     1
        56        68     1
        57        58     1
        57        59     1
        58        67     1
        58        68     1
        59        67     1
        59        68     1
        60        62     1
        60        63     1
        60        67     1
        61        62     1
        61        63     1
        61        67     1
        62        64     1
        62        65     1
        63        64     1
        63        65     1
