; ITP file created by ByteFF-ML, 2026-03-13 02:31:24.898234

[ atomtypes ]
;name           bonded.type        at.num        mass        charge   ptype           sigma         epsilon
 n0bf                                   7      0.0000       0.00000       A     3.38561e-01     3.91275e-01
 n1bf                                   7      0.0000       0.00000       A     3.38544e-01     3.93030e-01
 n2bf                                   7      0.0000       0.00000       A     3.38573e-01     3.96199e-01
 o3bf                                   8      0.0000       0.00000       A     3.24450e-01     3.89379e-01
 c4bf                                   6      0.0000       0.00000       A     3.31577e-01     4.15008e-01
 c5bf                                   6      0.0000       0.00000       A     3.31366e-01     4.09341e-01
 c6bf                                   6      0.0000       0.00000       A     3.31523e-01     4.13569e-01
 c7bf                                   6      0.0000       0.00000       A     3.31577e-01     4.12704e-01
 c8bf                                   6      0.0000       0.00000       A     3.31503e-01     4.13353e-01
 c9bf                                   6      0.0000       0.00000       A     3.31392e-01     4.13321e-01
 c10bf                                  6      0.0000       0.00000       A     3.31440e-01     4.11337e-01
 c11bf                                  6      0.0000       0.00000       A     3.31439e-01     4.10220e-01
 c12bf                                  6      0.0000       0.00000       A     3.31495e-01     4.13752e-01
 c13bf                                  6      0.0000       0.00000       A     3.31425e-01     4.12380e-01
 c14bf                                  6      0.0000       0.00000       A     3.31359e-01     4.09957e-01
 c15bf                                  6      0.0000       0.00000       A     3.31298e-01     4.16491e-01
 c16bf                                  6      0.0000       0.00000       A     3.31636e-01     4.14617e-01
 n17bf                                  7      0.0000       0.00000       A     3.18973e-01     8.99838e-01
 n18bf                                  7      0.0000       0.00000       A     3.18940e-01     8.93832e-01
 c19bf                                  6      0.0000       0.00000       A     3.39825e-01     4.50074e-01
 c20bf                                  6      0.0000       0.00000       A     3.39825e-01     4.50074e-01
 c21bf                                  6      0.0000       0.00000       A     3.40006e-01     4.49694e-01
 c22bf                                  6      0.0000       0.00000       A     3.39089e-01     4.49819e-01
 c23bf                                  6      0.0000       0.00000       A     3.39089e-01     4.49819e-01
 c24bf                                  6      0.0000       0.00000       A     3.40042e-01     4.52313e-01
 c25bf                                  6      0.0000       0.00000       A     3.40042e-01     4.52313e-01
 c26bf                                  6      0.0000       0.00000       A     3.39791e-01     4.48492e-01
 c27bf                                  6      0.0000       0.00000       A     3.39791e-01     4.48492e-01
 n28bf                                  7      0.0000       0.00000       A     2.68098e-01     7.07337e+00
 f29bf                                  9      0.0000       0.00000       A     3.03508e-01     3.48823e-01
 f30bf                                  9      0.0000       0.00000       A     3.03496e-01     3.49504e-01
 h31bf                                  1      0.0000       0.00000       A     2.60067e-01     8.81078e-02
 h32bf                                  1      0.0000       0.00000       A     2.60067e-01     8.81078e-02
 h33bf                                  1      0.0000       0.00000       A     5.35921e-02     2.01009e-02
 h34bf                                  1      0.0000       0.00000       A     2.62382e-01     6.71530e-02
 h35bf                                  1      0.0000       0.00000       A     2.62385e-01     6.75824e-02
 h36bf                                  1      0.0000       0.00000       A     2.62538e-01     6.77930e-02
 h37bf                                  1      0.0000       0.00000       A     2.53621e-01     6.72663e-02
 h38bf                                  1      0.0000       0.00000       A     2.42041e-01     8.75093e-02
 h39bf                                  1      0.0000       0.00000       A     2.42041e-01     8.75093e-02
 h40bf                                  1      0.0000       0.00000       A     2.42041e-01     8.75093e-02
 h41bf                                  1      0.0000       0.00000       A     2.42041e-01     8.75093e-02
 h42bf                                  1      0.0000       0.00000       A     2.41770e-01     8.68852e-02
 h43bf                                  1      0.0000       0.00000       A     2.41770e-01     8.68852e-02
 h44bf                                  1      0.0000       0.00000       A     2.41770e-01     8.68852e-02
 h45bf                                  1      0.0000       0.00000       A     2.41770e-01     8.68852e-02
 h46bf                                  1      0.0000       0.00000       A     2.60102e-01     8.79977e-02
 h47bf                                  1      0.0000       0.00000       A     2.60102e-01     8.79977e-02
 h48bf                                  1      0.0000       0.00000       A     2.60102e-01     8.79977e-02
 h49bf                                  1      0.0000       0.00000       A     2.60102e-01     8.79977e-02
 h50bf                                  1      0.0000       0.00000       A     1.89725e-01     8.84605e-02
 h51bf                                  1      0.0000       0.00000       A     1.89725e-01     8.84605e-02
 h52bf                                  1      0.0000       0.00000       A     1.10411e-01     4.09392e-02
 h53bf                                  1      0.0000       0.00000       A     1.10411e-01     4.09392e-02

[ moleculetype ]
;name             nrexcl
 MRTX_119_7RPZ_p1_conf2       3

[ atoms ]
;       nr            type      resi   res      atom      cgnr      charge          mass ; qtot
         1            n0bf         1   UNL        n0         1    -0.64585       14.0070 ; qtot   -0.646
         2            n1bf         1   UNL        n1         2    -0.32793       14.0070 ; qtot   -0.974
         3            n2bf         1   UNL        n2         3    -0.24989       14.0070 ; qtot   -1.224
         4            o3bf         1   UNL        o3         4    -0.53026       15.9990 ; qtot   -1.754
         5            c4bf         1   UNL        c4         5     0.41745       12.0110 ; qtot   -1.336
         6            c5bf         1   UNL        c5         6     0.39395       12.0110 ; qtot   -0.943
         7            c6bf         1   UNL        c6         7    -0.22451       12.0110 ; qtot   -1.167
         8            c7bf         1   UNL        c7         8    -0.19605       12.0110 ; qtot   -1.363
         9            c8bf         1   UNL        c8         9     0.23814       12.0110 ; qtot   -1.125
        10            c9bf         1   UNL        c9        10    -0.01302       12.0110 ; qtot   -1.138
        11           c10bf         1   UNL       c10        11     0.16754       12.0110 ; qtot   -0.970
        12           c11bf         1   UNL       c11        12    -0.21561       12.0110 ; qtot   -1.186
        13           c12bf         1   UNL       c12        13     0.12975       12.0110 ; qtot   -1.056
        14           c13bf         1   UNL       c13        14     0.39263       12.0110 ; qtot   -0.664
        15           c14bf         1   UNL       c14        15     0.40798       12.0110 ; qtot   -0.256
        16           c15bf         1   UNL       c15        16     0.10276       12.0110 ; qtot   -0.153
        17           c16bf         1   UNL       c16        17    -0.21366       12.0110 ; qtot   -0.367
        18           n17bf         1   UNL       n17        18    -0.74969       14.0070 ; qtot   -1.116
        19           n18bf         1   UNL       n18        19    -0.75722       14.0070 ; qtot   -1.873
        20           c19bf         1   UNL       c19        20     0.20922       12.0110 ; qtot   -1.664
        21           c20bf         1   UNL       c20        21     0.20922       12.0110 ; qtot   -1.455
        22           c21bf         1   UNL       c21        22    -0.11679       12.0110 ; qtot   -1.572
        23           c22bf         1   UNL       c22        23     0.18692       12.0110 ; qtot   -1.385
        24           c23bf         1   UNL       c23        24     0.18692       12.0110 ; qtot   -1.198
        25           c24bf         1   UNL       c24        25    -0.08895       12.0110 ; qtot   -1.287
        26           c25bf         1   UNL       c25        26    -0.08895       12.0110 ; qtot   -1.376
        27           c26bf         1   UNL       c26        27     0.12189       12.0110 ; qtot   -1.254
        28           c27bf         1   UNL       c27        28     0.12189       12.0110 ; qtot   -1.132
        29           n28bf         1   UNL       n28        29    -0.84599       14.0070 ; qtot   -1.978
        30           f29bf         1   UNL       f29        30    -0.16790       18.9980 ; qtot   -2.146
        31           f30bf         1   UNL       f30        31    -0.14970       18.9980 ; qtot   -2.296
        32           h31bf         1   UNL       h31        32     0.06229        1.0080 ; qtot   -2.233
        33           h32bf         1   UNL       h32        33     0.06229        1.0080 ; qtot   -2.171
        34           h33bf         1   UNL       h33        34     0.46531        1.0080 ; qtot   -1.706
        35           h34bf         1   UNL       h34        35     0.14355        1.0080 ; qtot   -1.562
        36           h35bf         1   UNL       h35        36     0.12994        1.0080 ; qtot   -1.432
        37           h36bf         1   UNL       h36        37     0.13206        1.0080 ; qtot   -1.300
        38           h37bf         1   UNL       h37        38     0.03309        1.0080 ; qtot   -1.267
        39           h38bf         1   UNL       h38        39     0.05918        1.0080 ; qtot   -1.208
        40           h39bf         1   UNL       h39        40     0.05918        1.0080 ; qtot   -1.149
        41           h40bf         1   UNL       h40        41     0.05918        1.0080 ; qtot   -1.090
        42           h41bf         1   UNL       h41        42     0.05918        1.0080 ; qtot   -1.030
        43           h42bf         1   UNL       h42        43     0.09494        1.0080 ; qtot   -0.936
        44           h43bf         1   UNL       h43        44     0.09494        1.0080 ; qtot   -0.841
        45           h44bf         1   UNL       h44        45     0.09494        1.0080 ; qtot   -0.746
        46           h45bf         1   UNL       h45        46     0.09494        1.0080 ; qtot   -0.651
        47           h46bf         1   UNL       h46        47     0.09222        1.0080 ; qtot   -0.558
        48           h47bf         1   UNL       h47        48     0.09222        1.0080 ; qtot   -0.466
        49           h48bf         1   UNL       h48        49     0.09222        1.0080 ; qtot   -0.374
        50           h49bf         1   UNL       h49        50     0.09222        1.0080 ; qtot   -0.282
        51           h50bf         1   UNL       h50        51     0.12104        1.0080 ; qtot   -0.161
        52           h51bf         1   UNL       h51        52     0.12104        1.0080 ; qtot   -0.040
        53           h52bf         1   UNL       h52        53     0.51984        1.0080 ; qtot    0.480
        54           h53bf         1   UNL       h53        54     0.51990        1.0080 ; qtot    1.000

[ bonds ]
;       ai        aj funct               r               k
         1         6     1        0.136367   251229.357666
         1        14     1        0.131803   376605.072998
         2         5     1        0.135997   246443.677832
         2        15     1        0.131832   362283.172559
         3         5     1        0.133375   305736.759863
         3        16     1        0.135475   303235.757520
         4        11     1        0.136822   291971.619482
         4        34     1        0.097024   469175.025977
         5        18     1        0.136038   322849.176855
         6        12     1        0.148153   210998.144482
         6        13     1        0.138697   292548.349561
         7         9     1        0.138878   322867.512500
         7        11     1        0.139913   296800.942236
         7        35     1        0.108472   324001.283545
         8        10     1        0.139074   335795.444287
         8        11     1        0.140163   288990.366260
         8        36     1        0.108572   320671.448779
         9        12     1        0.140027   275188.375830
         9        30     1        0.135423   288412.640234
        10        12     1        0.140609   286807.275391
        10        37     1        0.108499   322250.408252
        13        16     1        0.141535   262058.726416
        13        31     1        0.134968   300501.039551
        14        17     1        0.141623   263872.167627
        14        38     1        0.108665   316739.985254
        15        17     1        0.143644   229549.654199
        15        19     1        0.141500   223222.018164
        16        17     1        0.142430   250754.597266
        18        20     1        0.147270   192916.313281
        18        21     1        0.147270   192916.313281
        19        23     1        0.146949   183467.812646
        19        24     1        0.146949   183467.812646
        20        22     1        0.155470   168857.508862
        20        39     1        0.109460   295048.075049
        20        40     1        0.109460   295048.075049
        21        22     1        0.155470   168857.508862
        21        41     1        0.109460   295048.075049
        21        42     1        0.109460   295048.075049
        22        32     1        0.109088   310062.899414
        22        33     1        0.109088   310062.899414
        23        27     1        0.153876   169198.544189
        23        43     1        0.109342   300785.676172
        23        44     1        0.109342   300785.676172
        24        28     1        0.153876   169198.544189
        24        45     1        0.109342   300785.676172
        24        46     1        0.109342   300785.676172
        25        26     1        0.155779   153880.198511
        25        27     1        0.153955   164525.866064
        25        47     1        0.109165   310874.034619
        25        48     1        0.109165   310874.034619
        26        28     1        0.153955   164525.866064
        26        49     1        0.109165   310874.034619
        26        50     1        0.109165   310874.034619
        27        29     1        0.152806   112905.153174
        27        51     1        0.109058   317545.476758
        28        29     1        0.152806   112905.153174
        28        52     1        0.109058   317545.476758
        29        53     1        0.102639   386120.761768
        29        54     1        0.102639   386120.761768

[ angles ]
;       ai        aj        ak funct           theta             cth
         1         6        12     1      116.590195      546.855427
         1         6        13     1      120.435753      605.307955
         1        14        17     1      124.093666      621.088867
         1        14        38     1      116.149002      383.278718
         2         5         3     1      126.830215      608.889726
         2         5        18     1      115.497116      548.995181
         2        15        17     1      121.208908      558.309459
         2        15        19     1      117.517189      555.364519
         3         5        18     1      117.430466      530.460092
         3        16        13     1      120.376648      369.054229
         3        16        17     1      122.867271      756.165811
         4        11         7     1      119.529922      608.777810
         4        11         8     1      120.223923      613.945371
         5         2        15     1      118.030472      909.245523
         5         3        16     1      115.600769      496.153954
         5        18        20     1      127.568558      395.434063
         5        18        21     1      127.568558      395.434063
         6         1        14     1      119.666458      615.283261
         6        12         9     1      122.581383      534.246798
         6        12        10     1      120.722595      531.456933
         6        13        16     1      121.645103      639.967622
         6        13        31     1      120.441605      448.723466
         7         9        12     1      123.357788      573.148052
         7         9        30     1      116.949364      527.070200
         7        11         8     1      120.017868      561.147462
         8        10        12     1      122.201736      648.187698
         8        10        37     1      119.619705      410.839547
         9         7        11     1      118.539566      748.102277
         9         7        35     1      119.968651      442.804475
         9        12        10     1      116.158188      516.939437
        10         8        11     1      119.332169      749.443805
        10         8        36     1      120.825424      440.323161
        11         4        34     1      109.544067      611.235182
        11         7        35     1      121.368568      436.869651
        11         8        36     1      119.697998      455.665186
        12         6        13     1      122.394119      423.495196
        12         9        30     1      119.478271      459.741260
        12        10        37     1      118.248070      423.443771
        13        16        17     1      116.413475      704.824729
        14        17        15     1      126.924988      514.245272
        14        17        16     1      117.609726      823.713508
        15        17        16     1      114.931168      897.045744
        15        19        23     1      116.151245      553.449109
        15        19        24     1      116.151245      553.449109
        16        13        31     1      117.599327      469.024319
        17        14        38     1      120.270485      404.340353
        17        15        19     1      121.247818      418.244671
        18        20        22     1       88.185455      579.774229
        18        20        39     1      113.397156      396.672708
        18        20        40     1      113.397156      396.672708
        18        21        22     1       88.185455      579.774229
        18        21        41     1      113.397156      396.672708
        18        21        42     1      113.397156      396.672708
        19        23        27     1      110.419968      574.815306
        19        23        43     1      110.015121      435.837696
        19        23        44     1      110.015121      435.837696
        19        24        28     1      110.419968      574.815306
        19        24        45     1      110.015121      435.837696
        19        24        46     1      110.015121      435.837696
        20        18        21     1       94.349854      359.341859
        20        22        21     1       87.864532      603.182310
        20        22        32     1      114.529457      467.822989
        20        22        33     1      114.529457      467.822989
        21        22        32     1      114.529457      467.822989
        21        22        33     1      114.529457      467.822989
        22        20        39     1      115.649597      418.130711
        22        20        40     1      115.649597      418.130711
        22        21        41     1      115.649597      418.130711
        22        21        42     1      115.649597      418.130711
        23        19        24     1      113.023575      530.649833
        23        27        25     1      113.199745      580.112851
        23        27        29     1      106.602737      674.110482
        23        27        51     1      110.856812      458.517171
        24        28        26     1      113.199745      580.112851
        24        28        29     1      106.602737      674.110482
        24        28        52     1      110.856812      458.517171
        25        26        28     1      105.201942      510.005346
        25        26        49     1      111.675735      437.142291
        25        26        50     1      111.675735      437.142291
        25        27        29     1      101.418640      536.716811
        25        27        51     1      114.036766      411.209708
        26        25        27     1      105.201942      510.005346
        26        25        47     1      111.675735      437.142291
        26        25        48     1      111.675735      437.142291
        26        28        29     1      101.418640      536.716811
        26        28        52     1      114.036766      411.209708
        27        23        43     1      109.425522      473.224279
        27        23        44     1      109.425522      473.224279
        27        25        47     1      110.206017      481.946958
        27        25        48     1      110.206017      481.946958
        27        29        28     1      101.779678      586.160933
        27        29        53     1      111.672134      452.606639
        27        29        54     1      111.672134      452.606639
        28        24        45     1      109.425522      473.224279
        28        24        46     1      109.425522      473.224279
        28        26        49     1      110.206017      481.946958
        28        26        50     1      110.206009      481.946958
        28        29        53     1      111.672134      452.606639
        28        29        54     1      111.672134      452.606639
        29        27        51     1      108.498756      494.510641
        29        28        52     1      108.498756      494.510641
        32        22        33     1      109.473068      350.359628
        39        20        40     1      109.185257      347.235642
        41        21        42     1      109.185257      347.235642
        43        23        44     1      107.831497      345.579943
        45        24        46     1      107.831497      345.579943
        47        25        48     1      107.532181      357.637321
        49        26        50     1      107.532181      357.637321
        53        29        54     1      107.850487      393.501765

[ dihedrals ] ; propers for gromacs 4.5 or higher, use funct 9
;       ai        aj        ak        al funct           phase               k        pn
         1         6        12         9     9        0.000000       -1.569376         1
         1         6        12         9     9      180.000000        4.176091         2
         1         6        12         9     9        0.000000        0.653003         3
         1         6        12         9     9      180.000000        0.007899         4
         1         6        12        10     9        0.000000        0.583794         1
         1         6        12        10     9      180.000000        4.324243         2
         1         6        12        10     9        0.000000       -0.147916         3
         1         6        12        10     9      180.000000        0.238512         4
         1         6        13        16     9        0.000000       -0.296223         1
         1         6        13        16     9      180.000000       12.454171         2
         1         6        13        16     9        0.000000       -0.323755         3
         1         6        13        16     9      180.000000       -0.381986         4
         1         6        13        31     9        0.000000       -0.048595         1
         1         6        13        31     9      180.000000       20.430438         2
         1         6        13        31     9        0.000000        0.255170         3
         1         6        13        31     9      180.000000       -1.150801         4
         1        14        17        15     9        0.000000       -0.980375         1
         1        14        17        15     9      180.000000       11.648076         2
         1        14        17        15     9        0.000000       -0.411916         3
         1        14        17        15     9      180.000000       -0.306933         4
         1        14        17        16     9        0.000000       -0.042498         1
         1        14        17        16     9      180.000000       13.643418         2
         1        14        17        16     9        0.000000       -0.583656         3
         1        14        17        16     9      180.000000       -0.329615         4
         2         5         3        16     9        0.000000        0.113038         1
         2         5         3        16     9      180.000000       11.643012         2
         2         5         3        16     9        0.000000        1.017204         3
         2         5         3        16     9      180.000000       -0.586100         4
         2         5        18        20     9        0.000000        0.486084         1
         2         5        18        20     9      180.000000       11.226909         2
         2         5        18        20     9        0.000000       -0.240573         3
         2         5        18        20     9      180.000000       -0.150334         4
         2         5        18        21     9        0.000000        0.486084         1
         2         5        18        21     9      180.000000       11.226909         2
         2         5        18        21     9        0.000000       -0.240573         3
         2         5        18        21     9      180.000000       -0.150334         4
         2        15        17        14     9        0.000000       -1.023345         1
         2        15        17        14     9      180.000000        4.600153         2
         2        15        17        14     9        0.000000       -0.279020         3
         2        15        17        14     9      180.000000       -0.257886         4
         2        15        17        16     9        0.000000       -1.089283         1
         2        15        17        16     9      180.000000        6.656158         2
         2        15        17        16     9        0.000000       -0.254389         3
         2        15        17        16     9      180.000000       -0.273860         4
         2        15        19        23     9        0.000000       -0.743628         1
         2        15        19        23     9      180.000000        9.239530         2
         2        15        19        23     9        0.000000       -0.232486         3
         2        15        19        23     9      180.000000        0.231152         4
         2        15        19        24     9        0.000000       -0.743628         1
         2        15        19        24     9      180.000000        9.239530         2
         2        15        19        24     9        0.000000       -0.232486         3
         2        15        19        24     9      180.000000        0.231152         4
         3         5         2        15     9        0.000000        0.737114         1
         3         5         2        15     9      180.000000        9.075613         2
         3         5         2        15     9        0.000000        0.137408         3
         3         5         2        15     9      180.000000       -0.479207         4
         3         5        18        20     9        0.000000       -0.433865         1
         3         5        18        20     9      180.000000       11.172220         2
         3         5        18        20     9        0.000000       -0.668828         3
         3         5        18        20     9      180.000000       -0.036876         4
         3         5        18        21     9        0.000000       -0.433865         1
         3         5        18        21     9      180.000000       11.172220         2
         3         5        18        21     9        0.000000       -0.668828         3
         3         5        18        21     9      180.000000       -0.036876         4
         3        16        13         6     9        0.000000        0.291382         1
         3        16        13         6     9      180.000000       11.154484         2
         3        16        13         6     9        0.000000        0.174375         3
         3        16        13         6     9      180.000000       -0.219762         4
         3        16        13        31     9        0.000000        0.073116         1
         3        16        13        31     9      180.000000       19.585919         2
         3        16        13        31     9        0.000000        0.322266         3
         3        16        13        31     9      180.000000       -0.838739         4
         3        16        17        14     9        0.000000       -0.326939         1
         3        16        17        14     9      180.000000       11.532988         2
         3        16        17        14     9        0.000000       -0.259150         3
         3        16        17        14     9      180.000000       -0.275600         4
         3        16        17        15     9        0.000000       -0.707525         1
         3        16        17        15     9      180.000000       12.304944         2
         3        16        17        15     9        0.000000       -0.818664         3
         3        16        17        15     9      180.000000       -0.308201         4
         4        11         7         9     9        0.000000        0.223986         1
         4        11         7         9     9      180.000000       19.427274         2
         4        11         7         9     9        0.000000        0.295121         3
         4        11         7         9     9      180.000000       -0.635398         4
         4        11         7        35     9        0.000000        0.044774         1
         4        11         7        35     9      180.000000       14.386692         2
         4        11         7        35     9        0.000000        0.033886         3
         4        11         7        35     9      180.000000        0.158656         4
         4        11         8        10     9        0.000000        0.486142         1
         4        11         8        10     9      180.000000       19.522974         2
         4        11         8        10     9        0.000000        0.541546         3
         4        11         8        10     9      180.000000       -0.559071         4
         4        11         8        36     9        0.000000       -0.003961         1
         4        11         8        36     9      180.000000       14.916920         2
         4        11         8        36     9        0.000000        0.049470         3
         4        11         8        36     9      180.000000        0.088793         4
         5         2        15        17     9        0.000000       -0.328323         1
         5         2        15        17     9      180.000000       19.565105         2
         5         2        15        17     9        0.000000       -0.904109         3
         5         2        15        17     9      180.000000       -0.532991         4
         5         2        15        19     9        0.000000       -0.013863         1
         5         2        15        19     9      180.000000       25.255365         2
         5         2        15        19     9        0.000000        0.103868         3
         5         2        15        19     9      180.000000       -1.081039         4
         5         3        16        13     9        0.000000       -0.427074         1
         5         3        16        13     9      180.000000       14.555282         2
         5         3        16        13     9        0.000000        0.020656         3
         5         3        16        13     9      180.000000       -0.341221         4
         5         3        16        17     9        0.000000       -0.660182         1
         5         3        16        17     9      180.000000       13.609949         2
         5         3        16        17     9        0.000000       -0.483041         3
         5         3        16        17     9      180.000000       -0.264158         4
         5        18        20        22     9        0.000000       -8.502034         1
         5        18        20        22     9      180.000000       -1.196775         2
         5        18        20        22     9        0.000000       -0.340955         3
         5        18        20        22     9      180.000000       -1.872119         4
         5        18        20        39     9        0.000000        0.167917         1
         5        18        20        39     9      180.000000        0.037433         2
         5        18        20        39     9        0.000000       -0.325601         3
         5        18        20        39     9      180.000000        0.377862         4
         5        18        20        40     9        0.000000        0.167917         1
         5        18        20        40     9      180.000000        0.037433         2
         5        18        20        40     9        0.000000       -0.325601         3
         5        18        20        40     9      180.000000        0.377862         4
         5        18        21        22     9        0.000000       -8.502034         1
         5        18        21        22     9      180.000000       -1.196775         2
         5        18        21        22     9        0.000000       -0.340955         3
         5        18        21        22     9      180.000000       -1.872119         4
         5        18        21        41     9        0.000000        0.167917         1
         5        18        21        41     9      180.000000        0.037433         2
         5        18        21        41     9        0.000000       -0.325601         3
         5        18        21        41     9      180.000000        0.377862         4
         5        18        21        42     9        0.000000        0.167917         1
         5        18        21        42     9      180.000000        0.037433         2
         5        18        21        42     9        0.000000       -0.325601         3
         5        18        21        42     9      180.000000        0.377862         4
         6         1        14        17     9        0.000000       -0.258541         1
         6         1        14        17     9      180.000000       25.301121         2
         6         1        14        17     9        0.000000       -1.164679         3
         6         1        14        17     9      180.000000       -0.162375         4
         6         1        14        38     9        0.000000        0.813868         1
         6         1        14        38     9      180.000000       23.605776         2
         6         1        14        38     9        0.000000        0.220494         3
         6         1        14        38     9      180.000000       -0.370669         4
         6        12         9         7     9        0.000000       -0.042477         1
         6        12         9         7     9      180.000000       13.079735         2
         6        12         9         7     9        0.000000       -0.456168         3
         6        12         9         7     9      180.000000       -0.135406         4
         6        12         9        30     9        0.000000        0.002371         1
         6        12         9        30     9      180.000000       17.329694         2
         6        12         9        30     9        0.000000        0.427624         3
         6        12         9        30     9      180.000000       -0.733039         4
         6        12        10         8     9        0.000000        0.095747         1
         6        12        10         8     9      180.000000       15.519769         2
         6        12        10         8     9        0.000000       -0.358309         3
         6        12        10         8     9      180.000000       -0.205161         4
         6        12        10        37     9        0.000000       -0.072012         1
         6        12        10        37     9      180.000000       12.419396         2
         6        12        10        37     9        0.000000       -0.356267         3
         6        12        10        37     9      180.000000        0.210212         4
         6        13        16        17     9        0.000000       -0.045598         1
         6        13        16        17     9      180.000000       12.415744         2
         6        13        16        17     9        0.000000       -0.836007         3
         6        13        16        17     9      180.000000       -0.110352         4
         7         9        12        10     9        0.000000       -0.029675         1
         7         9        12        10     9      180.000000       15.839421         2
         7         9        12        10     9        0.000000       -0.921330         3
         7         9        12        10     9      180.000000       -0.290247         4
         7        11         4        34     9        0.000000        0.935719         1
         7        11         4        34     9      180.000000        4.734885         2
         7        11         4        34     9        0.000000        0.354906         3
         7        11         4        34     9      180.000000       -0.014849         4
         7        11         8        10     9        0.000000        0.095223         1
         7        11         8        10     9      180.000000       16.258214         2
         7        11         8        10     9        0.000000       -0.949436         3
         7        11         8        10     9      180.000000       -0.273001         4
         7        11         8        36     9        0.000000        0.056668         1
         7        11         8        36     9      180.000000       12.901006         2
         7        11         8        36     9        0.000000       -0.263320         3
         7        11         8        36     9      180.000000        0.114818         4
         8        10        12         9     9        0.000000       -0.078129         1
         8        10        12         9     9      180.000000       17.566375         2
         8        10        12         9     9        0.000000       -1.546514         3
         8        10        12         9     9      180.000000       -0.249294         4
         8        11         4        34     9        0.000000       -0.057673         1
         8        11         4        34     9      180.000000        5.036434         2
         8        11         4        34     9        0.000000        0.275481         3
         8        11         4        34     9      180.000000       -0.009739         4
         8        11         7         9     9        0.000000       -0.004945         1
         8        11         7         9     9      180.000000       16.380574         2
         8        11         7         9     9        0.000000       -1.014997         3
         8        11         7         9     9      180.000000       -0.305084         4
         8        11         7        35     9        0.000000        0.069817         1
         8        11         7        35     9      180.000000       12.152911         2
         8        11         7        35     9        0.000000       -0.375248         3
         8        11         7        35     9      180.000000        0.159849         4
         9        12         6        13     9        0.000000       -0.274433         1
         9        12         6        13     9      180.000000        3.839974         2
         9        12         6        13     9        0.000000        0.306501         3
         9        12         6        13     9      180.000000        0.111967         4
         9        12        10        37     9        0.000000        0.081325         1
         9        12        10        37     9      180.000000       13.692717         2
         9        12        10        37     9        0.000000       -0.623296         3
         9        12        10        37     9      180.000000        0.129509         4
        10        12         6        13     9        0.000000       -0.041423         1
        10        12         6        13     9      180.000000        4.256237         2
        10        12         6        13     9        0.000000       -0.053699         3
        10        12         6        13     9      180.000000        0.245871         4
        10        12         9        30     9        0.000000        0.745769         1
        10        12         9        30     9      180.000000       21.201567         2
        10        12         9        30     9        0.000000        0.548399         3
        10        12         9        30     9      180.000000       -0.707133         4
        11         7         9        12     9        0.000000       -0.100089         1
        11         7         9        12     9      180.000000       16.691972         2
        11         7         9        12     9        0.000000       -1.486356         3
        11         7         9        12     9      180.000000       -0.317293         4
        11         7         9        30     9        0.000000        0.413469         1
        11         7         9        30     9      180.000000       23.425879         2
        11         7         9        30     9        0.000000        0.411467         3
        11         7         9        30     9      180.000000       -0.817239         4
        11         8        10        12     9        0.000000       -0.072919         1
        11         8        10        12     9      180.000000       18.937957         2
        11         8        10        12     9        0.000000       -1.813467         3
        11         8        10        12     9      180.000000       -0.511193         4
        11         8        10        37     9        0.000000        0.101460         1
        11         8        10        37     9      180.000000       14.486250         2
        11         8        10        37     9        0.000000       -0.709477         3
        11         8        10        37     9      180.000000        0.088862         4
        12         6         1        14     9        0.000000        0.492127         1
        12         6         1        14     9      180.000000       22.006273         2
        12         6         1        14     9        0.000000        1.033228         3
        12         6         1        14     9      180.000000       -1.028719         4
        12         6        13        16     9        0.000000        0.096941         1
        12         6        13        16     9      180.000000       13.751973         2
        12         6        13        16     9        0.000000        0.028425         3
        12         6        13        16     9      180.000000       -0.541132         4
        12         6        13        31     9        0.000000       -0.091591         1
        12         6        13        31     9      180.000000       20.958497         2
        12         6        13        31     9        0.000000        0.523955         3
        12         6        13        31     9      180.000000       -1.347446         4
        12         9         7        35     9        0.000000        0.018219         1
        12         9         7        35     9      180.000000       12.758665         2
        12         9         7        35     9        0.000000       -0.619164         3
        12         9         7        35     9      180.000000        0.187323         4
        12        10         8        36     9        0.000000        0.013115         1
        12        10         8        36     9      180.000000       14.724504         2
        12        10         8        36     9        0.000000       -0.638971         3
        12        10         8        36     9      180.000000        0.080520         4
        13         6         1        14     9        0.000000       -0.023018         1
        13         6         1        14     9      180.000000       17.927917         2
        13         6         1        14     9        0.000000        0.053732         3
        13         6         1        14     9      180.000000       -0.196058         4
        13        16        17        14     9        0.000000       -0.272220         1
        13        16        17        14     9      180.000000       10.670089         2
        13        16        17        14     9        0.000000       -1.108377         3
        13        16        17        14     9      180.000000       -0.122371         4
        13        16        17        15     9        0.000000       -0.952089         1
        13        16        17        15     9      180.000000       12.130442         2
        13        16        17        15     9        0.000000       -1.688840         3
        13        16        17        15     9      180.000000       -0.240100         4
        14        17        15        19     9        0.000000        0.603701         1
        14        17        15        19     9      180.000000        8.876631         2
        14        17        15        19     9        0.000000        0.481886         3
        14        17        15        19     9      180.000000       -0.497221         4
        15         2         5        18     9        0.000000        0.530390         1
        15         2         5        18     9      180.000000       12.795659         2
        15         2         5        18     9        0.000000        0.087723         3
        15         2         5        18     9      180.000000       -0.637303         4
        15        17        14        38     9        0.000000       -0.117513         1
        15        17        14        38     9      180.000000        9.881837         2
        15        17        14        38     9        0.000000       -0.332999         3
        15        17        14        38     9      180.000000        0.011919         4
        15        19        23        27     9        0.000000       -3.521535         1
        15        19        23        27     9      180.000000       -0.528139         2
        15        19        23        27     9        0.000000        0.375905         3
        15        19        23        27     9      180.000000       -0.105045         4
        15        19        23        43     9        0.000000       -0.019047         1
        15        19        23        43     9      180.000000        0.188569         2
        15        19        23        43     9        0.000000        0.185594         3
        15        19        23        43     9      180.000000        0.140000         4
        15        19        23        44     9        0.000000       -0.019047         1
        15        19        23        44     9      180.000000        0.188569         2
        15        19        23        44     9        0.000000        0.185594         3
        15        19        23        44     9      180.000000        0.140000         4
        15        19        24        28     9        0.000000       -3.521535         1
        15        19        24        28     9      180.000000       -0.528139         2
        15        19        24        28     9        0.000000        0.375905         3
        15        19        24        28     9      180.000000       -0.105045         4
        15        19        24        45     9        0.000000       -0.019047         1
        15        19        24        45     9      180.000000        0.188569         2
        15        19        24        45     9        0.000000        0.185594         3
        15        19        24        45     9      180.000000        0.140000         4
        15        19        24        46     9        0.000000       -0.019047         1
        15        19        24        46     9      180.000000        0.188569         2
        15        19        24        46     9        0.000000        0.185594         3
        15        19        24        46     9      180.000000        0.140000         4
        16         3         5        18     9        0.000000        0.992015         1
        16         3         5        18     9      180.000000       16.963009         2
        16         3         5        18     9        0.000000        0.602829         3
        16         3         5        18     9      180.000000       -1.023723         4
        16        17        14        38     9        0.000000        0.019752         1
        16        17        14        38     9      180.000000       11.633794         2
        16        17        14        38     9        0.000000       -0.249990         3
        16        17        14        38     9      180.000000       -0.179142         4
        16        17        15        19     9        0.000000        0.350523         1
        16        17        15        19     9      180.000000       11.520122         2
        16        17        15        19     9        0.000000        0.532219         3
        16        17        15        19     9      180.000000       -0.518112         4
        17        15        19        23     9        0.000000        4.972942         1
        17        15        19        23     9      180.000000        7.436753         2
        17        15        19        23     9        0.000000       -0.170623         3
        17        15        19        23     9      180.000000        0.306424         4
        17        15        19        24     9        0.000000        4.972942         1
        17        15        19        24     9      180.000000        7.436753         2
        17        15        19        24     9        0.000000       -0.170623         3
        17        15        19        24     9      180.000000        0.306424         4
        17        16        13        31     9        0.000000        0.292856         1
        17        16        13        31     9      180.000000       18.616030         2
        17        16        13        31     9        0.000000        0.223368         3
        17        16        13        31     9      180.000000       -0.560426         4
        18        20        22        21     9        0.000000       -0.344764         1
        18        20        22        21     9      180.000000       15.061064         2
        18        20        22        21     9        0.000000       -0.820450         3
        18        20        22        21     9      180.000000       -0.370909         4
        18        20        22        32     9        0.000000       -0.124207         1
        18        20        22        32     9      180.000000        0.122620         2
        18        20        22        32     9        0.000000        0.363796         3
        18        20        22        32     9      180.000000        0.643275         4
        18        20        22        33     9        0.000000       -0.124207         1
        18        20        22        33     9      180.000000        0.122620         2
        18        20        22        33     9        0.000000        0.363796         3
        18        20        22        33     9      180.000000        0.643275         4
        18        21        22        20     9        0.000000       -0.344764         1
        18        21        22        20     9      180.000000       15.061064         2
        18        21        22        20     9        0.000000       -0.820450         3
        18        21        22        20     9      180.000000       -0.370909         4
        18        21        22        32     9        0.000000       -0.124207         1
        18        21        22        32     9      180.000000        0.122620         2
        18        21        22        32     9        0.000000        0.363796         3
        18        21        22        32     9      180.000000        0.643275         4
        18        21        22        33     9        0.000000       -0.124207         1
        18        21        22        33     9      180.000000        0.122620         2
        18        21        22        33     9        0.000000        0.363796         3
        18        21        22        33     9      180.000000        0.643275         4
        19        23        27        25     9        0.000000        8.691451         1
        19        23        27        25     9      180.000000        2.979321         2
        19        23        27        25     9        0.000000        1.169094         3
        19        23        27        25     9      180.000000       -0.257825         4
        19        23        27        29     9        0.000000       10.303515         1
        19        23        27        29     9      180.000000       -0.591146         2
        19        23        27        29     9        0.000000        1.267328         3
        19        23        27        29     9      180.000000       -0.391469         4
        19        23        27        51     9        0.000000        0.200991         1
        19        23        27        51     9      180.000000       -1.362012         2
        19        23        27        51     9        0.000000        0.790619         3
        19        23        27        51     9      180.000000        0.145179         4
        19        24        28        26     9        0.000000        8.691451         1
        19        24        28        26     9      180.000000        2.979321         2
        19        24        28        26     9        0.000000        1.169094         3
        19        24        28        26     9      180.000000       -0.257825         4
        19        24        28        29     9        0.000000       10.303515         1
        19        24        28        29     9      180.000000       -0.591146         2
        19        24        28        29     9        0.000000        1.267328         3
        19        24        28        29     9      180.000000       -0.391469         4
        19        24        28        52     9        0.000000        0.200991         1
        19        24        28        52     9      180.000000       -1.362012         2
        19        24        28        52     9        0.000000        0.790619         3
        19        24        28        52     9      180.000000        0.145179         4
        20        18        21        22     9        0.000000       -1.304024         1
        20        18        21        22     9      180.000000       13.355111         2
        20        18        21        22     9        0.000000       -1.185782         3
        20        18        21        22     9      180.000000       -2.310031         4
        20        18        21        41     9        0.000000        0.694430         1
        20        18        21        41     9      180.000000        0.584032         2
        20        18        21        41     9        0.000000        0.104254         3
        20        18        21        41     9      180.000000        1.196101         4
        20        18        21        42     9        0.000000        0.694430         1
        20        18        21        42     9      180.000000        0.584032         2
        20        18        21        42     9        0.000000        0.104254         3
        20        18        21        42     9      180.000000        1.196101         4
        20        22        21        41     9        0.000000        0.490586         1
        20        22        21        41     9      180.000000        0.131199         2
        20        22        21        41     9        0.000000        0.152865         3
        20        22        21        41     9      180.000000        1.145354         4
        20        22        21        42     9        0.000000        0.490586         1
        20        22        21        42     9      180.000000        0.131199         2
        20        22        21        42     9        0.000000        0.152865         3
        20        22        21        42     9      180.000000        1.145354         4
        21        18        20        22     9        0.000000       -1.304024         1
        21        18        20        22     9      180.000000       13.355111         2
        21        18        20        22     9        0.000000       -1.185782         3
        21        18        20        22     9      180.000000       -2.310031         4
        21        18        20        39     9        0.000000        0.694430         1
        21        18        20        39     9      180.000000        0.584032         2
        21        18        20        39     9        0.000000        0.104254         3
        21        18        20        39     9      180.000000        1.196101         4
        21        18        20        40     9        0.000000        0.694430         1
        21        18        20        40     9      180.000000        0.584032         2
        21        18        20        40     9        0.000000        0.104254         3
        21        18        20        40     9      180.000000        1.196101         4
        21        22        20        39     9        0.000000        0.490586         1
        21        22        20        39     9      180.000000        0.131199         2
        21        22        20        39     9        0.000000        0.152865         3
        21        22        20        39     9      180.000000        1.145354         4
        21        22        20        40     9        0.000000        0.490586         1
        21        22        20        40     9      180.000000        0.131199         2
        21        22        20        40     9        0.000000        0.152865         3
        21        22        20        40     9      180.000000        1.145354         4
        23        19        24        28     9        0.000000        3.362333         1
        23        19        24        28     9      180.000000       -3.295501         2
        23        19        24        28     9        0.000000        0.518537         3
        23        19        24        28     9      180.000000        0.090926         4
        23        19        24        45     9        0.000000       -0.399768         1
        23        19        24        45     9      180.000000        0.277138         2
        23        19        24        45     9        0.000000        0.871066         3
        23        19        24        45     9      180.000000       -0.015009         4
        23        19        24        46     9        0.000000       -0.399768         1
        23        19        24        46     9      180.000000        0.277138         2
        23        19        24        46     9        0.000000        0.871066         3
        23        19        24        46     9      180.000000       -0.015009         4
        23        27        25        26     9        0.000000        0.958481         1
        23        27        25        26     9      180.000000        1.828221         2
        23        27        25        26     9        0.000000        0.287884         3
        23        27        25        26     9      180.000000       -0.116139         4
        23        27        25        47     9        0.000000       -0.152771         1
        23        27        25        47     9      180.000000       -0.126016         2
        23        27        25        47     9        0.000000        0.292799         3
        23        27        25        47     9      180.000000        0.022367         4
        23        27        25        48     9        0.000000       -0.152771         1
        23        27        25        48     9      180.000000       -0.126016         2
        23        27        25        48     9        0.000000        0.292799         3
        23        27        25        48     9      180.000000        0.022367         4
        23        27        29        28     9        0.000000       -0.856049         1
        23        27        29        28     9      180.000000       -3.154684         2
        23        27        29        28     9        0.000000        0.341031         3
        23        27        29        28     9      180.000000       -0.429376         4
        23        27        29        53     9        0.000000        3.791331         1
        23        27        29        53     9      180.000000        0.915303         2
        23        27        29        53     9        0.000000        0.458894         3
        23        27        29        53     9      180.000000        0.414023         4
        23        27        29        54     9        0.000000        3.791331         1
        23        27        29        54     9      180.000000        0.915303         2
        23        27        29        54     9        0.000000        0.458894         3
        23        27        29        54     9      180.000000        0.414023         4
        24        19        23        27     9        0.000000        3.362333         1
        24        19        23        27     9      180.000000       -3.295501         2
        24        19        23        27     9        0.000000        0.518537         3
        24        19        23        27     9      180.000000        0.090926         4
        24        19        23        43     9        0.000000       -0.399768         1
        24        19        23        43     9      180.000000        0.277138         2
        24        19        23        43     9        0.000000        0.871066         3
        24        19        23        43     9      180.000000       -0.015009         4
        24        19        23        44     9        0.000000       -0.399768         1
        24        19        23        44     9      180.000000        0.277138         2
        24        19        23        44     9        0.000000        0.871066         3
        24        19        23        44     9      180.000000       -0.015009         4
        24        28        26        25     9        0.000000        0.958481         1
        24        28        26        25     9      180.000000        1.828221         2
        24        28        26        25     9        0.000000        0.287884         3
        24        28        26        25     9      180.000000       -0.116139         4
        24        28        26        49     9        0.000000       -0.152771         1
        24        28        26        49     9      180.000000       -0.126016         2
        24        28        26        49     9        0.000000        0.292799         3
        24        28        26        49     9      180.000000        0.022367         4
        24        28        26        50     9        0.000000       -0.152771         1
        24        28        26        50     9      180.000000       -0.126016         2
        24        28        26        50     9        0.000000        0.292799         3
        24        28        26        50     9      180.000000        0.022367         4
        24        28        29        27     9        0.000000       -0.856049         1
        24        28        29        27     9      180.000000       -3.154684         2
        24        28        29        27     9        0.000000        0.341031         3
        24        28        29        27     9      180.000000       -0.429376         4
        24        28        29        53     9        0.000000        3.791331         1
        24        28        29        53     9      180.000000        0.915303         2
        24        28        29        53     9        0.000000        0.458894         3
        24        28        29        53     9      180.000000        0.414023         4
        24        28        29        54     9        0.000000        3.791331         1
        24        28        29        54     9      180.000000        0.915303         2
        24        28        29        54     9        0.000000        0.458894         3
        24        28        29        54     9      180.000000        0.414023         4
        25        26        28        29     9        0.000000       -6.720878         1
        25        26        28        29     9      180.000000       11.285333         2
        25        26        28        29     9        0.000000        0.310731         3
        25        26        28        29     9      180.000000       -2.781277         4
        25        26        28        52     9        0.000000        0.718087         1
        25        26        28        52     9      180.000000        0.470470         2
        25        26        28        52     9        0.000000        0.272977         3
        25        26        28        52     9      180.000000        0.606890         4
        25        27        23        43     9        0.000000       -0.249240         1
        25        27        23        43     9      180.000000        0.008704         2
        25        27        23        43     9        0.000000        0.634046         3
        25        27        23        43     9      180.000000        0.041269         4
        25        27        23        44     9        0.000000       -0.249240         1
        25        27        23        44     9      180.000000        0.008704         2
        25        27        23        44     9        0.000000        0.634046         3
        25        27        23        44     9      180.000000        0.041269         4
        25        27        29        28     9        0.000000       -8.011958         1
        25        27        29        28     9      180.000000        8.433473         2
        25        27        29        28     9        0.000000        0.257642         3
        25        27        29        28     9      180.000000       -4.599936         4
        25        27        29        53     9        0.000000       -3.138491         1
        25        27        29        53     9      180.000000        2.167025         2
        25        27        29        53     9        0.000000        0.241529         3
        25        27        29        53     9      180.000000       -0.244107         4
        25        27        29        54     9        0.000000       -3.138491         1
        25        27        29        54     9      180.000000        2.167025         2
        25        27        29        54     9        0.000000        0.241529         3
        25        27        29        54     9      180.000000       -0.244107         4
        26        25        27        29     9        0.000000       -6.720878         1
        26        25        27        29     9      180.000000       11.285333         2
        26        25        27        29     9        0.000000        0.310731         3
        26        25        27        29     9      180.000000       -2.781277         4
        26        25        27        51     9        0.000000        0.718087         1
        26        25        27        51     9      180.000000        0.470470         2
        26        25        27        51     9        0.000000        0.272977         3
        26        25        27        51     9      180.000000        0.606890         4
        26        28        24        45     9        0.000000       -0.249240         1
        26        28        24        45     9      180.000000        0.008704         2
        26        28        24        45     9        0.000000        0.634046         3
        26        28        24        45     9      180.000000        0.041269         4
        26        28        24        46     9        0.000000       -0.249240         1
        26        28        24        46     9      180.000000        0.008704         2
        26        28        24        46     9        0.000000        0.634046         3
        26        28        24        46     9      180.000000        0.041269         4
        26        28        29        27     9        0.000000       -8.011958         1
        26        28        29        27     9      180.000000        8.433473         2
        26        28        29        27     9        0.000000        0.257642         3
        26        28        29        27     9      180.000000       -4.599936         4
        26        28        29        53     9        0.000000       -3.138491         1
        26        28        29        53     9      180.000000        2.167025         2
        26        28        29        53     9        0.000000        0.241529         3
        26        28        29        53     9      180.000000       -0.244107         4
        26        28        29        54     9        0.000000       -3.138491         1
        26        28        29        54     9      180.000000        2.167025         2
        26        28        29        54     9        0.000000        0.241529         3
        26        28        29        54     9      180.000000       -0.244107         4
        27        25        26        28     9        0.000000       -0.441189         1
        27        25        26        28     9      180.000000        1.461411         2
        27        25        26        28     9        0.000000        0.090583         3
        27        25        26        28     9      180.000000       -1.237683         4
        27        25        26        49     9        0.000000       -0.040957         1
        27        25        26        49     9      180.000000       -0.134545         2
        27        25        26        49     9        0.000000        0.175830         3
        27        25        26        49     9      180.000000        0.068007         4
        27        25        26        50     9        0.000000       -0.040957         1
        27        25        26        50     9      180.000000       -0.134545         2
        27        25        26        50     9        0.000000        0.175830         3
        27        25        26        50     9      180.000000        0.068007         4
        27        29        28        52     9        0.000000       -1.122189         1
        27        29        28        52     9      180.000000       -5.819559         2
        27        29        28        52     9        0.000000        0.140568         3
        27        29        28        52     9      180.000000        0.114691         4
        28        26        25        47     9        0.000000       -0.040957         1
        28        26        25        47     9      180.000000       -0.134545         2
        28        26        25        47     9        0.000000        0.175830         3
        28        26        25        47     9      180.000000        0.068007         4
        28        26        25        48     9        0.000000       -0.040957         1
        28        26        25        48     9      180.000000       -0.134545         2
        28        26        25        48     9        0.000000        0.175830         3
        28        26        25        48     9      180.000000        0.068007         4
        28        29        27        51     9        0.000000       -1.122189         1
        28        29        27        51     9      180.000000       -5.819559         2
        28        29        27        51     9        0.000000        0.140568         3
        28        29        27        51     9      180.000000        0.114691         4
        29        27        23        43     9        0.000000       -0.109134         1
        29        27        23        43     9      180.000000        0.138443         2
        29        27        23        43     9        0.000000        0.755957         3
        29        27        23        43     9      180.000000       -0.087097         4
        29        27        23        44     9        0.000000       -0.109134         1
        29        27        23        44     9      180.000000        0.138443         2
        29        27        23        44     9        0.000000        0.755957         3
        29        27        23        44     9      180.000000       -0.087097         4
        29        27        25        47     9        0.000000       -0.566249         1
        29        27        25        47     9      180.000000        0.138173         2
        29        27        25        47     9        0.000000        0.237111         3
        29        27        25        47     9      180.000000       -0.093240         4
        29        27        25        48     9        0.000000       -0.566249         1
        29        27        25        48     9      180.000000        0.138173         2
        29        27        25        48     9        0.000000        0.237111         3
        29        27        25        48     9      180.000000       -0.093240         4
        29        28        24        45     9        0.000000       -0.109134         1
        29        28        24        45     9      180.000000        0.138443         2
        29        28        24        45     9        0.000000        0.755957         3
        29        28        24        45     9      180.000000       -0.087097         4
        29        28        24        46     9        0.000000       -0.109134         1
        29        28        24        46     9      180.000000        0.138443         2
        29        28        24        46     9        0.000000        0.755957         3
        29        28        24        46     9      180.000000       -0.087097         4
        29        28        26        49     9        0.000000       -0.566249         1
        29        28        26        49     9      180.000000        0.138173         2
        29        28        26        49     9        0.000000        0.237111         3
        29        28        26        49     9      180.000000       -0.093240         4
        29        28        26        50     9        0.000000       -0.566249         1
        29        28        26        50     9      180.000000        0.138173         2
        29        28        26        50     9        0.000000        0.237111         3
        29        28        26        50     9      180.000000       -0.093240         4
        30         9         7        35     9        0.000000        0.361616         1
        30         9         7        35     9      180.000000       17.196656         2
        30         9         7        35     9        0.000000        0.348249         3
        30         9         7        35     9      180.000000        0.129877         4
        32        22        20        39     9        0.000000       -0.197798         1
        32        22        20        39     9      180.000000       -0.062830         2
        32        22        20        39     9        0.000000        0.720360         3
        32        22        20        39     9      180.000000       -0.159047         4
        32        22        20        40     9        0.000000       -0.197798         1
        32        22        20        40     9      180.000000       -0.062830         2
        32        22        20        40     9        0.000000        0.720360         3
        32        22        20        40     9      180.000000       -0.159047         4
        32        22        21        41     9        0.000000       -0.197798         1
        32        22        21        41     9      180.000000       -0.062830         2
        32        22        21        41     9        0.000000        0.720360         3
        32        22        21        41     9      180.000000       -0.159047         4
        32        22        21        42     9        0.000000       -0.197798         1
        32        22        21        42     9      180.000000       -0.062830         2
        32        22        21        42     9        0.000000        0.720360         3
        32        22        21        42     9      180.000000       -0.159047         4
        33        22        20        39     9        0.000000       -0.197798         1
        33        22        20        39     9      180.000000       -0.062830         2
        33        22        20        39     9        0.000000        0.720360         3
        33        22        20        39     9      180.000000       -0.159047         4
        33        22        20        40     9        0.000000       -0.197798         1
        33        22        20        40     9      180.000000       -0.062830         2
        33        22        20        40     9        0.000000        0.720360         3
        33        22        20        40     9      180.000000       -0.159047         4
        33        22        21        41     9        0.000000       -0.197798         1
        33        22        21        41     9      180.000000       -0.062830         2
        33        22        21        41     9        0.000000        0.720360         3
        33        22        21        41     9      180.000000       -0.159047         4
        33        22        21        42     9        0.000000       -0.197798         1
        33        22        21        42     9      180.000000       -0.062830         2
        33        22        21        42     9        0.000000        0.720360         3
        33        22        21        42     9      180.000000       -0.159047         4
        36         8        10        37     9        0.000000       -0.196401         1
        36         8        10        37     9      180.000000       12.236038         2
        36         8        10        37     9        0.000000       -0.684912         3
        36         8        10        37     9      180.000000        0.344727         4
        43        23        27        51     9        0.000000        0.154148         1
        43        23        27        51     9      180.000000        0.583964         2
        43        23        27        51     9        0.000000        0.589181         3
        43        23        27        51     9      180.000000       -0.059466         4
        44        23        27        51     9        0.000000        0.154148         1
        44        23        27        51     9      180.000000        0.583964         2
        44        23        27        51     9        0.000000        0.589181         3
        44        23        27        51     9      180.000000       -0.059466         4
        45        24        28        52     9        0.000000        0.154148         1
        45        24        28        52     9      180.000000        0.583964         2
        45        24        28        52     9        0.000000        0.589181         3
        45        24        28        52     9      180.000000       -0.059466         4
        46        24        28        52     9        0.000000        0.154148         1
        46        24        28        52     9      180.000000        0.583964         2
        46        24        28        52     9        0.000000        0.589181         3
        46        24        28        52     9      180.000000       -0.059466         4
        47        25        26        49     9        0.000000        0.035023         1
        47        25        26        49     9      180.000000        0.050947         2
        47        25        26        49     9        0.000000        0.415366         3
        47        25        26        49     9      180.000000       -0.045839         4
        47        25        26        50     9        0.000000        0.035023         1
        47        25        26        50     9      180.000000        0.050947         2
        47        25        26        50     9        0.000000        0.415366         3
        47        25        26        50     9      180.000000       -0.045839         4
        47        25        27        51     9        0.000000       -0.104800         1
        47        25        27        51     9      180.000000        0.054431         2
        47        25        27        51     9        0.000000        0.500456         3
        47        25        27        51     9      180.000000       -0.079028         4
        48        25        26        49     9        0.000000        0.035023         1
        48        25        26        49     9      180.000000        0.050947         2
        48        25        26        49     9        0.000000        0.415366         3
        48        25        26        49     9      180.000000       -0.045839         4
        48        25        26        50     9        0.000000        0.035023         1
        48        25        26        50     9      180.000000        0.050947         2
        48        25        26        50     9        0.000000        0.415366         3
        48        25        26        50     9      180.000000       -0.045839         4
        48        25        27        51     9        0.000000       -0.104800         1
        48        25        27        51     9      180.000000        0.054431         2
        48        25        27        51     9        0.000000        0.500456         3
        48        25        27        51     9      180.000000       -0.079028         4
        49        26        28        52     9        0.000000       -0.104800         1
        49        26        28        52     9      180.000000        0.054431         2
        49        26        28        52     9        0.000000        0.500456         3
        49        26        28        52     9      180.000000       -0.079028         4
        50        26        28        52     9        0.000000       -0.104800         1
        50        26        28        52     9      180.000000        0.054431         2
        50        26        28        52     9        0.000000        0.500456         3
        50        26        28        52     9      180.000000       -0.079028         4
        51        27        29        53     9        0.000000       -0.497216         1
        51        27        29        53     9      180.000000        2.354124         2
        51        27        29        53     9        0.000000        0.397744         3
        51        27        29        53     9      180.000000        0.067520         4
        51        27        29        54     9        0.000000       -0.497216         1
        51        27        29        54     9      180.000000        2.354124         2
        51        27        29        54     9        0.000000        0.397744         3
        51        27        29        54     9      180.000000        0.067520         4
        52        28        29        53     9        0.000000       -0.497216         1
        52        28        29        53     9      180.000000        2.354124         2
        52        28        29        53     9        0.000000        0.397744         3
        52        28        29        53     9      180.000000        0.067520         4
        52        28        29        54     9        0.000000       -0.497216         1
        52        28        29        54     9      180.000000        2.354124         2
        52        28        29        54     9        0.000000        0.397744         3
        52        28        29        54     9      180.000000        0.067520         4

[ dihedrals ] ; impropers
;       ai        aj        ak        al funct           phase               k        pn
         5         2         3        18     4      180.000000       27.893333         2
         5         3        18         2     4      180.000000       27.893333         2
         5        18         2         3     4      180.000000       27.893333         2
         6         1        12        13     4      180.000000        0.559204         2
         6        12        13         1     4      180.000000        0.559204         2
         6        13         1        12     4      180.000000        0.559204         2
        11         4         7         8     4      180.000000        2.335618         2
        11         7         8         4     4      180.000000        2.335618         2
        11         8         4         7     4      180.000000        2.335618         2
        14         1        17        38     4      180.000000        1.702296         2
        14        17        38         1     4      180.000000        1.702296         2
        14        38         1        17     4      180.000000        1.702296         2
        15         2        17        19     4      180.000000        6.408611         2
        15        17        19         2     4      180.000000        6.408611         2
        15        19         2        17     4      180.000000        6.408611         2

[ pairs ]
;       ai        aj funct
         1         9     1
         1        10     1
         1        15     1
         1        16     1
         1        31     1
         2        14     1
         2        16     1
         2        20     1
         2        21     1
         2        23     1
         2        24     1
         3         6     1
         3        14     1
         3        15     1
         3        20     1
         3        21     1
         3        31     1
         4         9     1
         4        10     1
         4        35     1
         4        36     1
         5        13     1
         5        17     1
         5        19     1
         5        22     1
         5        39     1
         5        40     1
         5        41     1
         5        42     1
         6         7     1
         6         8     1
         6        17     1
         6        30     1
         6        37     1
         6        38     1
         7        10     1
         7        34     1
         7        36     1
         8         9     1
         8        34     1
         8        35     1
         9        13     1
         9        37     1
        10        13     1
        10        30     1
        11        12     1
        11        30     1
        11        37     1
        12        14     1
        12        16     1
        12        31     1
        12        35     1
        12        36     1
        13        14     1
        13        15     1
        14        19     1
        15        18     1
        15        27     1
        15        28     1
        15        38     1
        15        43     1
        15        44     1
        15        45     1
        15        46     1
        16        18     1
        16        19     1
        16        38     1
        17        23     1
        17        24     1
        17        31     1
        18        32     1
        18        33     1
        19        25     1
        19        26     1
        19        29     1
        19        51     1
        19        52     1
        20        41     1
        20        42     1
        21        39     1
        21        40     1
        23        26     1
        23        28     1
        23        45     1
        23        46     1
        23        47     1
        23        48     1
        23        53     1
        23        54     1
        24        25     1
        24        27     1
        24        43     1
        24        44     1
        24        49     1
        24        50     1
        24        53     1
        24        54     1
        25        43     1
        25        44     1
        25        52     1
        25        53     1
        25        54     1
        26        45     1
        26        46     1
        26        51     1
        26        53     1
        26        54     1
        27        49     1
        27        50     1
        27        52     1
        28        47     1
        28        48     1
        28        51     1
        29        43     1
        29        44     1
        29        45     1
        29        46     1
        29        47     1
        29        48     1
        29        49     1
        29        50     1
        30        35     1
        32        39     1
        32        40     1
        32        41     1
        32        42     1
        33        39     1
        33        40     1
        33        41     1
        33        42     1
        36        37     1
        43        51     1
        44        51     1
        45        52     1
        46        52     1
        47        49     1
        47        50     1
        47        51     1
        48        49     1
        48        50     1
        48        51     1
        49        52     1
        50        52     1
        51        53     1
        51        54     1
        52        53     1
        52        54     1
