; ITP file created by ByteFF-ML, 2026-03-13 02:30:35.300317

[ atomtypes ]
;name           bonded.type        at.num        mass        charge   ptype           sigma         epsilon
 n0bf                                   7      0.0000       0.00000       A     3.38561e-01     3.91275e-01
 n1bf                                   7      0.0000       0.00000       A     3.38328e-01     3.87733e-01
 n2bf                                   7      0.0000       0.00000       A     3.38577e-01     3.93755e-01
 o3bf                                   8      0.0000       0.00000       A     3.24450e-01     3.89379e-01
 c4bf                                   6      0.0000       0.00000       A     3.31581e-01     4.11278e-01
 c5bf                                   6      0.0000       0.00000       A     3.31366e-01     4.09341e-01
 c6bf                                   6      0.0000       0.00000       A     3.31523e-01     4.13569e-01
 c7bf                                   6      0.0000       0.00000       A     3.31577e-01     4.12704e-01
 c8bf                                   6      0.0000       0.00000       A     3.31503e-01     4.13353e-01
 c9bf                                   6      0.0000       0.00000       A     3.31392e-01     4.13321e-01
 c10bf                                  6      0.0000       0.00000       A     3.31440e-01     4.11337e-01
 c11bf                                  6      0.0000       0.00000       A     3.31439e-01     4.10220e-01
 c12bf                                  6      0.0000       0.00000       A     3.31422e-01     4.11642e-01
 c13bf                                  6      0.0000       0.00000       A     3.31425e-01     4.12380e-01
 c14bf                                  6      0.0000       0.00000       A     3.32034e-01     4.11602e-01
 c15bf                                  6      0.0000       0.00000       A     3.31656e-01     4.16365e-01
 c16bf                                  6      0.0000       0.00000       A     3.31656e-01     4.14756e-01
 n17bf                                  7      0.0000       0.00000       A     2.57259e-01     1.06605e+01
 n18bf                                  7      0.0000       0.00000       A     3.18966e-01     9.05236e-01
 c19bf                                  6      0.0000       0.00000       A     3.39582e-01     4.47993e-01
 c20bf                                  6      0.0000       0.00000       A     3.39582e-01     4.47993e-01
 c21bf                                  6      0.0000       0.00000       A     3.39661e-01     4.49783e-01
 c22bf                                  6      0.0000       0.00000       A     3.39089e-01     4.49819e-01
 c23bf                                  6      0.0000       0.00000       A     3.39089e-01     4.49819e-01
 c24bf                                  6      0.0000       0.00000       A     3.40042e-01     4.52313e-01
 c25bf                                  6      0.0000       0.00000       A     3.40042e-01     4.52313e-01
 c26bf                                  6      0.0000       0.00000       A     3.39791e-01     4.48492e-01
 c27bf                                  6      0.0000       0.00000       A     3.39791e-01     4.48492e-01
 n28bf                                  7      0.0000       0.00000       A     2.68098e-01     7.07337e+00
 f29bf                                  9      0.0000       0.00000       A     3.03508e-01     3.48823e-01
 f30bf                                  9      0.0000       0.00000       A     3.03496e-01     3.49504e-01
 h31bf                                  1      0.0000       0.00000       A     2.60583e-01     8.80073e-02
 h32bf                                  1      0.0000       0.00000       A     2.60583e-01     8.80073e-02
 h33bf                                  1      0.0000       0.00000       A     5.35921e-02     2.01009e-02
 h34bf                                  1      0.0000       0.00000       A     2.62382e-01     6.71530e-02
 h35bf                                  1      0.0000       0.00000       A     2.62385e-01     6.75824e-02
 h36bf                                  1      0.0000       0.00000       A     2.62538e-01     6.77930e-02
 h37bf                                  1      0.0000       0.00000       A     2.53621e-01     6.72663e-02
 h38bf                                  1      0.0000       0.00000       A     1.88743e-01     8.41591e-02
 h39bf                                  1      0.0000       0.00000       A     1.88743e-01     8.41591e-02
 h40bf                                  1      0.0000       0.00000       A     1.88743e-01     8.41591e-02
 h41bf                                  1      0.0000       0.00000       A     1.88743e-01     8.41591e-02
 h42bf                                  1      0.0000       0.00000       A     2.41770e-01     8.68852e-02
 h43bf                                  1      0.0000       0.00000       A     2.41770e-01     8.68852e-02
 h44bf                                  1      0.0000       0.00000       A     2.41770e-01     8.68852e-02
 h45bf                                  1      0.0000       0.00000       A     2.41770e-01     8.68852e-02
 h46bf                                  1      0.0000       0.00000       A     2.60102e-01     8.79977e-02
 h47bf                                  1      0.0000       0.00000       A     2.60102e-01     8.79977e-02
 h48bf                                  1      0.0000       0.00000       A     2.60102e-01     8.79977e-02
 h49bf                                  1      0.0000       0.00000       A     2.60102e-01     8.79977e-02
 h50bf                                  1      0.0000       0.00000       A     1.89725e-01     8.84605e-02
 h51bf                                  1      0.0000       0.00000       A     1.89725e-01     8.84605e-02
 h52bf                                  1      0.0000       0.00000       A     1.11353e-01     4.27954e-02
 h53bf                                  1      0.0000       0.00000       A     1.10411e-01     4.09392e-02
 h54bf                                  1      0.0000       0.00000       A     1.10411e-01     4.09392e-02

[ moleculetype ]
;name             nrexcl
 MRTX_119_7RPZ_p2_conf2       3

[ atoms ]
;       nr            type      resi   res      atom      cgnr      charge          mass ; qtot
         1            n0bf         1   UNL        n0         1    -0.64585       14.0070 ; qtot   -0.646
         2            n1bf         1   UNL        n1         2    -0.25328       14.0070 ; qtot   -0.899
         3            n2bf         1   UNL        n2         3    -0.11182       14.0070 ; qtot   -1.011
         4            o3bf         1   UNL        o3         4    -0.53026       15.9990 ; qtot   -1.541
         5            c4bf         1   UNL        c4         5     0.28162       12.0110 ; qtot   -1.260
         6            c5bf         1   UNL        c5         6     0.39923       12.0110 ; qtot   -0.860
         7            c6bf         1   UNL        c6         7    -0.22451       12.0110 ; qtot   -1.085
         8            c7bf         1   UNL        c7         8    -0.19605       12.0110 ; qtot   -1.281
         9            c8bf         1   UNL        c8         9     0.23814       12.0110 ; qtot   -1.043
        10            c9bf         1   UNL        c9        10    -0.01302       12.0110 ; qtot   -1.056
        11           c10bf         1   UNL       c10        11     0.16754       12.0110 ; qtot   -0.888
        12           c11bf         1   UNL       c11        12    -0.21561       12.0110 ; qtot   -1.104
        13           c12bf         1   UNL       c12        13     0.16265       12.0110 ; qtot   -0.941
        14           c13bf         1   UNL       c13        14     0.39692       12.0110 ; qtot   -0.544
        15           c14bf         1   UNL       c14        15     0.46853       12.0110 ; qtot   -0.076
        16           c15bf         1   UNL       c15        16     0.07854       12.0110 ; qtot    0.003
        17           c16bf         1   UNL       c16        17    -0.18796       12.0110 ; qtot   -0.185
        18           n17bf         1   UNL       n17        18    -0.72381       14.0070 ; qtot   -0.909
        19           n18bf         1   UNL       n18        19    -0.74418       14.0070 ; qtot   -1.653
        20           c19bf         1   UNL       c19        20     0.14700       12.0110 ; qtot   -1.506
        21           c20bf         1   UNL       c20        21     0.14700       12.0110 ; qtot   -1.359
        22           c21bf         1   UNL       c21        22    -0.09010       12.0110 ; qtot   -1.449
        23           c22bf         1   UNL       c22        23     0.18900       12.0110 ; qtot   -1.260
        24           c23bf         1   UNL       c23        24     0.18900       12.0110 ; qtot   -1.071
        25           c24bf         1   UNL       c24        25    -0.08895       12.0110 ; qtot   -1.160
        26           c25bf         1   UNL       c25        26    -0.08895       12.0110 ; qtot   -1.249
        27           c26bf         1   UNL       c26        27     0.12189       12.0110 ; qtot   -1.127
        28           c27bf         1   UNL       c27        28     0.12189       12.0110 ; qtot   -1.005
        29           n28bf         1   UNL       n28        29    -0.84599       14.0070 ; qtot   -1.851
        30           f29bf         1   UNL       f29        30    -0.16790       18.9980 ; qtot   -2.019
        31           f30bf         1   UNL       f30        31    -0.13345       18.9980 ; qtot   -2.153
        32           h31bf         1   UNL       h31        32     0.11081        1.0080 ; qtot   -2.042
        33           h32bf         1   UNL       h32        33     0.11081        1.0080 ; qtot   -1.931
        34           h33bf         1   UNL       h33        34     0.46531        1.0080 ; qtot   -1.466
        35           h34bf         1   UNL       h34        35     0.14355        1.0080 ; qtot   -1.322
        36           h35bf         1   UNL       h35        36     0.12994        1.0080 ; qtot   -1.192
        37           h36bf         1   UNL       h36        37     0.13206        1.0080 ; qtot   -1.060
        38           h37bf         1   UNL       h37        38     0.03309        1.0080 ; qtot   -1.027
        39           h38bf         1   UNL       h38        39     0.11773        1.0080 ; qtot   -0.909
        40           h39bf         1   UNL       h39        40     0.11773        1.0080 ; qtot   -0.792
        41           h40bf         1   UNL       h40        41     0.11773        1.0080 ; qtot   -0.674
        42           h41bf         1   UNL       h41        42     0.11773        1.0080 ; qtot   -0.556
        43           h42bf         1   UNL       h42        43     0.09494        1.0080 ; qtot   -0.461
        44           h43bf         1   UNL       h43        44     0.09494        1.0080 ; qtot   -0.366
        45           h44bf         1   UNL       h44        45     0.09494        1.0080 ; qtot   -0.271
        46           h45bf         1   UNL       h45        46     0.09494        1.0080 ; qtot   -0.176
        47           h46bf         1   UNL       h46        47     0.09222        1.0080 ; qtot   -0.084
        48           h47bf         1   UNL       h47        48     0.09222        1.0080 ; qtot    0.008
        49           h48bf         1   UNL       h48        49     0.09222        1.0080 ; qtot    0.100
        50           h49bf         1   UNL       h49        50     0.09222        1.0080 ; qtot    0.192
        51           h50bf         1   UNL       h50        51     0.12104        1.0080 ; qtot    0.313
        52           h51bf         1   UNL       h51        52     0.12104        1.0080 ; qtot    0.434
        53           h52bf         1   UNL       h52        53     0.52578        1.0080 ; qtot    0.960
        54           h53bf         1   UNL       h53        54     0.51984        1.0080 ; qtot    1.480
        55           h54bf         1   UNL       h54        55     0.51991        1.0080 ; qtot    2.000

[ bonds ]
;       ai        aj funct               r               k
         1         6     1        0.136367   251229.357666
         1        14     1        0.131803   376605.072998
         2         5     1        0.132246   321910.177344
         2        15     1        0.134171   304425.991113
         3         5     1        0.129916   387275.932910
         3        16     1        0.136990   272747.513379
         4        11     1        0.136822   291971.619482
         4        34     1        0.097024   469175.025977
         5        18     1        0.147503   144916.009155
         6        12     1        0.148153   210998.144482
         6        13     1        0.139317   278930.302930
         7         9     1        0.138878   322867.512500
         7        11     1        0.139913   296800.942236
         7        35     1        0.108472   324001.283545
         8        10     1        0.139074   335795.444287
         8        11     1        0.140163   288990.366260
         8        36     1        0.108572   320671.448779
         9        12     1        0.140027   275188.375830
         9        30     1        0.135423   288412.640234
        10        12     1        0.140609   286807.275391
        10        37     1        0.108499   322250.408252
        13        16     1        0.140753   275919.426660
        13        31     1        0.134272   313898.164648
        14        17     1        0.141833   259917.822852
        14        38     1        0.108665   316739.985254
        15        17     1        0.144179   225105.609814
        15        19     1        0.138779   270731.792725
        16        17     1        0.142362   252923.668262
        18        20     1        0.154495   112233.016455
        18        21     1        0.154495   112233.016455
        18        53     1        0.102319   391304.360840
        19        23     1        0.147087   181394.454736
        19        24     1        0.147087   181394.480273
        20        22     1        0.154466   176875.561084
        20        39     1        0.108851   319714.445605
        20        40     1        0.108851   319714.445605
        21        22     1        0.154466   176875.561084
        21        41     1        0.108851   319714.445605
        21        42     1        0.108851   319714.445605
        22        32     1        0.108943   316326.590527
        22        33     1        0.108943   316326.590527
        23        27     1        0.153876   169198.544189
        23        43     1        0.109342   300785.676172
        23        44     1        0.109342   300785.676172
        24        28     1        0.153876   169198.544189
        24        45     1        0.109342   300785.676172
        24        46     1        0.109342   300785.676172
        25        26     1        0.155779   153880.198511
        25        27     1        0.153955   164525.866064
        25        47     1        0.109165   310874.034619
        25        48     1        0.109165   310874.034619
        26        28     1        0.153955   164525.866064
        26        49     1        0.109165   310874.034619
        26        50     1        0.109165   310874.034619
        27        29     1        0.152806   112905.153174
        27        51     1        0.109058   317545.476758
        28        29     1        0.152806   112905.153174
        28        52     1        0.109058   317545.476758
        29        54     1        0.102639   386120.761768
        29        55     1        0.102639   386120.761768

[ angles ]
;       ai        aj        ak funct           theta             cth
         1         6        12     1      116.590195      546.855427
         1         6        13     1      120.426903      625.990907
         1        14        17     1      123.885353      620.403004
         1        14        38     1      116.149002      383.278718
         2         5         3     1      131.627426      580.066948
         2         5        18     1      113.648827      422.106775
         2        15        17     1      119.655457      589.858068
         2        15        19     1      117.148537      579.399472
         3         5        18     1      114.865746      375.433750
         3        16        13     1      120.345016      382.159554
         3        16        17     1      121.832169      771.496887
         4        11         7     1      119.529922      608.777810
         4        11         8     1      120.223923      613.945371
         5         2        15     1      116.743065      790.932734
         5         3        16     1      114.606606      418.526473
         5        18        20     1      118.733505      521.028280
         5        18        21     1      118.733505      521.028280
         5        18        53     1      106.688065      547.668975
         6         1        14     1      119.666458      615.283261
         6        12         9     1      122.581383      534.246798
         6        12        10     1      120.722595      531.456933
         6        13        16     1      121.045631      609.559118
         6        13        31     1      120.611107      446.770101
         7         9        12     1      123.357788      573.148052
         7         9        30     1      116.949364      527.070200
         7        11         8     1      120.017868      561.147462
         8        10        12     1      122.201736      648.187698
         8        10        37     1      119.619705      410.839547
         9         7        11     1      118.539566      748.102277
         9         7        35     1      119.968651      442.804475
         9        12        10     1      116.158188      516.939437
        10         8        11     1      119.332169      749.443805
        10         8        36     1      120.825424      440.323161
        11         4        34     1      109.544067      611.235182
        11         7        35     1      121.368568      436.869651
        11         8        36     1      119.697998      455.665186
        12         6        13     1      122.232460      423.842022
        12         9        30     1      119.478271      459.741260
        12        10        37     1      118.248070      423.443771
        13        16        17     1      117.567955      672.134740
        14        17        15     1      126.742897      523.150924
        14        17        16     1      117.140747      772.185304
        15        17        16     1      115.958458      899.839248
        15        19        23     1      118.559593      514.433385
        15        19        24     1      118.559593      514.433385
        16        13        31     1      117.919334      487.283735
        17        14        38     1      120.391457      403.726058
        17        15        19     1      122.776505      414.557846
        18        20        22     1       89.824120      538.911790
        18        20        39     1      109.621384      478.205771
        18        20        40     1      109.621384      478.205771
        18        21        22     1       89.824120      538.911790
        18        21        41     1      109.621384      478.205771
        18        21        42     1      109.621384      478.205771
        19        23        27     1      110.411499      576.603606
        19        23        43     1      109.946091      436.802807
        19        23        44     1      109.946091      436.802807
        19        24        28     1      110.411499      576.603606
        19        24        45     1      109.946091      436.802807
        19        24        46     1      109.946091      436.802807
        20        18        21     1       88.859489      311.976842
        20        18        53     1      111.280052      422.137707
        20        22        21     1       88.518517      636.422433
        20        22        32     1      114.285744      456.505038
        20        22        33     1      114.285744      456.505038
        21        18        53     1      111.280052      422.137707
        21        22        32     1      114.285744      456.505038
        21        22        33     1      114.285744      456.505038
        22        20        39     1      116.953087      412.295099
        22        20        40     1      116.953087      412.295099
        22        21        41     1      116.953087      412.295099
        22        21        42     1      116.953087      412.295099
        23        19        24     1      113.221107      518.955177
        23        27        25     1      113.199745      580.112851
        23        27        29     1      106.602737      674.110482
        23        27        51     1      110.856812      458.517171
        24        28        26     1      113.199745      580.112851
        24        28        29     1      106.602737      674.110482
        24        28        52     1      110.856812      458.517171
        25        26        28     1      105.201942      510.005346
        25        26        49     1      111.675735      437.142291
        25        26        50     1      111.675735      437.142291
        25        27        29     1      101.418640      536.716811
        25        27        51     1      114.036766      411.209708
        26        25        27     1      105.201942      510.005346
        26        25        47     1      111.675735      437.142291
        26        25        48     1      111.675735      437.142291
        26        28        29     1      101.418640      536.716811
        26        28        52     1      114.036766      411.209708
        27        23        43     1      109.425522      473.224279
        27        23        44     1      109.425522      473.224279
        27        25        47     1      110.206017      481.946958
        27        25        48     1      110.206017      481.946958
        27        29        28     1      101.779678      586.160933
        27        29        54     1      111.672134      452.606639
        27        29        55     1      111.672134      452.606639
        28        24        45     1      109.425537      473.224279
        28        24        46     1      109.425537      473.224279
        28        26        49     1      110.206009      481.946958
        28        26        50     1      110.206009      481.946958
        28        29        54     1      111.672134      452.606639
        28        29        55     1      111.672134      452.606639
        29        27        51     1      108.498756      494.510641
        29        28        52     1      108.498756      494.510641
        32        22        33     1      109.460594      354.797084
        39        20        40     1      111.036278      340.546866
        41        21        42     1      111.036278      340.546866
        43        23        44     1      107.831497      345.579943
        45        24        46     1      107.831497      345.579943
        47        25        48     1      107.532181      357.637321
        49        26        50     1      107.532181      357.637321
        54        29        55     1      107.850487      393.501765

[ dihedrals ] ; propers for gromacs 4.5 or higher, use funct 9
;       ai        aj        ak        al funct           phase               k        pn
         1         6        12         9     9        0.000000       -1.569376         1
         1         6        12         9     9      180.000000        4.176091         2
         1         6        12         9     9        0.000000        0.653003         3
         1         6        12         9     9      180.000000        0.007899         4
         1         6        12        10     9        0.000000        0.583794         1
         1         6        12        10     9      180.000000        4.324243         2
         1         6        12        10     9        0.000000       -0.147916         3
         1         6        12        10     9      180.000000        0.238512         4
         1         6        13        16     9        0.000000        0.085301         1
         1         6        13        16     9      180.000000       11.850956         2
         1         6        13        16     9        0.000000       -0.290359         3
         1         6        13        16     9      180.000000       -0.460322         4
         1         6        13        31     9        0.000000       -0.042788         1
         1         6        13        31     9      180.000000       19.709754         2
         1         6        13        31     9        0.000000        0.262295         3
         1         6        13        31     9      180.000000       -1.168591         4
         1        14        17        15     9        0.000000       -0.953071         1
         1        14        17        15     9      180.000000       11.102563         2
         1        14        17        15     9        0.000000       -0.323947         3
         1        14        17        15     9      180.000000       -0.303537         4
         1        14        17        16     9        0.000000        0.000504         1
         1        14        17        16     9      180.000000       14.178313         2
         1        14        17        16     9        0.000000       -0.554312         3
         1        14        17        16     9      180.000000       -0.393053         4
         2         5         3        16     9        0.000000        0.354770         1
         2         5         3        16     9      180.000000       23.716190         2
         2         5         3        16     9        0.000000        0.027599         3
         2         5         3        16     9      180.000000       -0.351365         4
         2         5        18        20     9        0.000000       -0.209242         1
         2         5        18        20     9      180.000000        1.775958         2
         2         5        18        20     9        0.000000        0.163335         3
         2         5        18        20     9      180.000000       -0.054729         4
         2         5        18        21     9        0.000000       -0.209242         1
         2         5        18        21     9      180.000000        1.775958         2
         2         5        18        21     9        0.000000        0.163335         3
         2         5        18        21     9      180.000000       -0.054729         4
         2         5        18        53     9        0.000000        2.545098         1
         2         5        18        53     9      180.000000        1.742179         2
         2         5        18        53     9        0.000000        0.257278         3
         2         5        18        53     9      180.000000       -0.027929         4
         2        15        17        14     9        0.000000       -1.726501         1
         2        15        17        14     9      180.000000        6.011475         2
         2        15        17        14     9        0.000000       -0.037427         3
         2        15        17        14     9      180.000000       -0.377648         4
         2        15        17        16     9        0.000000       -0.547380         1
         2        15        17        16     9      180.000000        6.791722         2
         2        15        17        16     9        0.000000        0.372496         3
         2        15        17        16     9      180.000000       -0.422123         4
         2        15        19        23     9        0.000000       -2.906105         1
         2        15        19        23     9      180.000000       11.167870         2
         2        15        19        23     9        0.000000       -0.029636         3
         2        15        19        23     9      180.000000       -0.089193         4
         2        15        19        24     9        0.000000       -2.906105         1
         2        15        19        24     9      180.000000       11.167870         2
         2        15        19        24     9        0.000000       -0.029636         3
         2        15        19        24     9      180.000000       -0.089193         4
         3         5         2        15     9        0.000000       -0.867884         1
         3         5         2        15     9      180.000000       15.360494         2
         3         5         2        15     9        0.000000       -0.314369         3
         3         5         2        15     9      180.000000       -0.142834         4
         3         5        18        20     9        0.000000       -0.592790         1
         3         5        18        20     9      180.000000        0.892392         2
         3         5        18        20     9        0.000000       -0.175402         3
         3         5        18        20     9      180.000000        0.087605         4
         3         5        18        21     9        0.000000       -0.592790         1
         3         5        18        21     9      180.000000        0.892392         2
         3         5        18        21     9        0.000000       -0.175402         3
         3         5        18        21     9      180.000000        0.087605         4
         3         5        18        53     9        0.000000        0.236965         1
         3         5        18        53     9      180.000000        1.938832         2
         3         5        18        53     9        0.000000       -0.207789         3
         3         5        18        53     9      180.000000       -0.129759         4
         3        16        13         6     9        0.000000        0.215006         1
         3        16        13         6     9      180.000000       12.212889         2
         3        16        13         6     9        0.000000        0.175001         3
         3        16        13         6     9      180.000000       -0.350046         4
         3        16        13        31     9        0.000000        0.528614         1
         3        16        13        31     9      180.000000       20.478098         2
         3        16        13        31     9        0.000000        0.544153         3
         3        16        13        31     9      180.000000       -0.875279         4
         3        16        17        14     9        0.000000       -0.349302         1
         3        16        17        14     9      180.000000       12.152195         2
         3        16        17        14     9        0.000000       -0.254749         3
         3        16        17        14     9      180.000000       -0.375480         4
         3        16        17        15     9        0.000000       -0.791778         1
         3        16        17        15     9      180.000000       12.638730         2
         3        16        17        15     9        0.000000       -0.542701         3
         3        16        17        15     9      180.000000       -0.289650         4
         4        11         7         9     9        0.000000        0.223986         1
         4        11         7         9     9      180.000000       19.427274         2
         4        11         7         9     9        0.000000        0.295121         3
         4        11         7         9     9      180.000000       -0.635398         4
         4        11         7        35     9        0.000000        0.044774         1
         4        11         7        35     9      180.000000       14.386692         2
         4        11         7        35     9        0.000000        0.033886         3
         4        11         7        35     9      180.000000        0.158656         4
         4        11         8        10     9        0.000000        0.486142         1
         4        11         8        10     9      180.000000       19.522974         2
         4        11         8        10     9        0.000000        0.541546         3
         4        11         8        10     9      180.000000       -0.559071         4
         4        11         8        36     9        0.000000       -0.003961         1
         4        11         8        36     9      180.000000       14.916920         2
         4        11         8        36     9        0.000000        0.049470         3
         4        11         8        36     9      180.000000        0.088793         4
         5         2        15        17     9        0.000000        0.972893         1
         5         2        15        17     9      180.000000       14.337743         2
         5         2        15        17     9        0.000000        0.190885         3
         5         2        15        17     9      180.000000       -0.569825         4
         5         2        15        19     9        0.000000        1.210193         1
         5         2        15        19     9      180.000000       20.919158         2
         5         2        15        19     9        0.000000        0.590554         3
         5         2        15        19     9      180.000000       -0.770666         4
         5         3        16        13     9        0.000000       -0.789983         1
         5         3        16        13     9      180.000000       12.110308         2
         5         3        16        13     9        0.000000       -0.109401         3
         5         3        16        13     9      180.000000       -0.283131         4
         5         3        16        17     9        0.000000       -0.708601         1
         5         3        16        17     9      180.000000       11.455339         2
         5         3        16        17     9        0.000000       -0.686943         3
         5         3        16        17     9      180.000000       -0.095540         4
         5        18        20        22     9        0.000000       -6.183742         1
         5        18        20        22     9      180.000000        3.771262         2
         5        18        20        22     9        0.000000        0.716879         3
         5        18        20        22     9      180.000000        1.222460         4
         5        18        20        39     9        0.000000        0.840151         1
         5        18        20        39     9      180.000000       -0.517569         2
         5        18        20        39     9        0.000000        1.025823         3
         5        18        20        39     9      180.000000       -0.157154         4
         5        18        20        40     9        0.000000        0.840151         1
         5        18        20        40     9      180.000000       -0.517569         2
         5        18        20        40     9        0.000000        1.025823         3
         5        18        20        40     9      180.000000       -0.157154         4
         5        18        21        22     9        0.000000       -6.183742         1
         5        18        21        22     9      180.000000        3.771262         2
         5        18        21        22     9        0.000000        0.716879         3
         5        18        21        22     9      180.000000        1.222460         4
         5        18        21        41     9        0.000000        0.840151         1
         5        18        21        41     9      180.000000       -0.517569         2
         5        18        21        41     9        0.000000        1.025823         3
         5        18        21        41     9      180.000000       -0.157154         4
         5        18        21        42     9        0.000000        0.840151         1
         5        18        21        42     9      180.000000       -0.517569         2
         5        18        21        42     9        0.000000        1.025823         3
         5        18        21        42     9      180.000000       -0.157154         4
         6         1        14        17     9        0.000000       -0.273426         1
         6         1        14        17     9      180.000000       25.317287         2
         6         1        14        17     9        0.000000       -1.071145         3
         6         1        14        17     9      180.000000       -0.168246         4
         6         1        14        38     9        0.000000        0.813868         1
         6         1        14        38     9      180.000000       23.605776         2
         6         1        14        38     9        0.000000        0.220494         3
         6         1        14        38     9      180.000000       -0.370669         4
         6        12         9         7     9        0.000000       -0.042477         1
         6        12         9         7     9      180.000000       13.079735         2
         6        12         9         7     9        0.000000       -0.456168         3
         6        12         9         7     9      180.000000       -0.135406         4
         6        12         9        30     9        0.000000        0.002371         1
         6        12         9        30     9      180.000000       17.329694         2
         6        12         9        30     9        0.000000        0.427624         3
         6        12         9        30     9      180.000000       -0.733039         4
         6        12        10         8     9        0.000000        0.095747         1
         6        12        10         8     9      180.000000       15.519769         2
         6        12        10         8     9        0.000000       -0.358309         3
         6        12        10         8     9      180.000000       -0.205161         4
         6        12        10        37     9        0.000000       -0.072012         1
         6        12        10        37     9      180.000000       12.419396         2
         6        12        10        37     9        0.000000       -0.356267         3
         6        12        10        37     9      180.000000        0.210212         4
         6        13        16        17     9        0.000000       -0.421235         1
         6        13        16        17     9      180.000000       12.789516         2
         6        13        16        17     9        0.000000       -1.081542         3
         6        13        16        17     9      180.000000       -0.129652         4
         7         9        12        10     9        0.000000       -0.029675         1
         7         9        12        10     9      180.000000       15.839421         2
         7         9        12        10     9        0.000000       -0.921330         3
         7         9        12        10     9      180.000000       -0.290247         4
         7        11         4        34     9        0.000000        0.935719         1
         7        11         4        34     9      180.000000        4.734885         2
         7        11         4        34     9        0.000000        0.354906         3
         7        11         4        34     9      180.000000       -0.014849         4
         7        11         8        10     9        0.000000        0.095223         1
         7        11         8        10     9      180.000000       16.258214         2
         7        11         8        10     9        0.000000       -0.949436         3
         7        11         8        10     9      180.000000       -0.273001         4
         7        11         8        36     9        0.000000        0.056668         1
         7        11         8        36     9      180.000000       12.901006         2
         7        11         8        36     9        0.000000       -0.263320         3
         7        11         8        36     9      180.000000        0.114818         4
         8        10        12         9     9        0.000000       -0.078129         1
         8        10        12         9     9      180.000000       17.566375         2
         8        10        12         9     9        0.000000       -1.546514         3
         8        10        12         9     9      180.000000       -0.249294         4
         8        11         4        34     9        0.000000       -0.057673         1
         8        11         4        34     9      180.000000        5.036434         2
         8        11         4        34     9        0.000000        0.275481         3
         8        11         4        34     9      180.000000       -0.009739         4
         8        11         7         9     9        0.000000       -0.004945         1
         8        11         7         9     9      180.000000       16.380574         2
         8        11         7         9     9        0.000000       -1.014997         3
         8        11         7         9     9      180.000000       -0.305084         4
         8        11         7        35     9        0.000000        0.069817         1
         8        11         7        35     9      180.000000       12.152911         2
         8        11         7        35     9        0.000000       -0.375248         3
         8        11         7        35     9      180.000000        0.159849         4
         9        12         6        13     9        0.000000       -0.069990         1
         9        12         6        13     9      180.000000        4.173595         2
         9        12         6        13     9        0.000000        0.337992         3
         9        12         6        13     9      180.000000        0.106444         4
         9        12        10        37     9        0.000000        0.081325         1
         9        12        10        37     9      180.000000       13.692717         2
         9        12        10        37     9        0.000000       -0.623296         3
         9        12        10        37     9      180.000000        0.129509         4
        10        12         6        13     9        0.000000       -0.131011         1
        10        12         6        13     9      180.000000        4.560397         2
        10        12         6        13     9        0.000000       -0.039706         3
        10        12         6        13     9      180.000000        0.226154         4
        10        12         9        30     9        0.000000        0.745769         1
        10        12         9        30     9      180.000000       21.201567         2
        10        12         9        30     9        0.000000        0.548399         3
        10        12         9        30     9      180.000000       -0.707133         4
        11         7         9        12     9        0.000000       -0.100089         1
        11         7         9        12     9      180.000000       16.691972         2
        11         7         9        12     9        0.000000       -1.486356         3
        11         7         9        12     9      180.000000       -0.317293         4
        11         7         9        30     9        0.000000        0.413469         1
        11         7         9        30     9      180.000000       23.425879         2
        11         7         9        30     9        0.000000        0.411467         3
        11         7         9        30     9      180.000000       -0.817239         4
        11         8        10        12     9        0.000000       -0.072919         1
        11         8        10        12     9      180.000000       18.937957         2
        11         8        10        12     9        0.000000       -1.813467         3
        11         8        10        12     9      180.000000       -0.511193         4
        11         8        10        37     9        0.000000        0.101460         1
        11         8        10        37     9      180.000000       14.486250         2
        11         8        10        37     9        0.000000       -0.709477         3
        11         8        10        37     9      180.000000        0.088862         4
        12         6         1        14     9        0.000000        0.492127         1
        12         6         1        14     9      180.000000       22.006273         2
        12         6         1        14     9        0.000000        1.033228         3
        12         6         1        14     9      180.000000       -1.028719         4
        12         6        13        16     9        0.000000        0.201158         1
        12         6        13        16     9      180.000000       13.531186         2
        12         6        13        16     9        0.000000       -0.034337         3
        12         6        13        16     9      180.000000       -0.520650         4
        12         6        13        31     9        0.000000       -0.152838         1
        12         6        13        31     9      180.000000       20.487816         2
        12         6        13        31     9        0.000000        0.332214         3
        12         6        13        31     9      180.000000       -1.277016         4
        12         9         7        35     9        0.000000        0.018219         1
        12         9         7        35     9      180.000000       12.758665         2
        12         9         7        35     9        0.000000       -0.619164         3
        12         9         7        35     9      180.000000        0.187323         4
        12        10         8        36     9        0.000000        0.013115         1
        12        10         8        36     9      180.000000       14.724504         2
        12        10         8        36     9        0.000000       -0.638971         3
        12        10         8        36     9      180.000000        0.080520         4
        13         6         1        14     9        0.000000        0.035949         1
        13         6         1        14     9      180.000000       18.064405         2
        13         6         1        14     9        0.000000        0.166683         3
        13         6         1        14     9      180.000000       -0.229812         4
        13        16        17        14     9        0.000000       -0.372961         1
        13        16        17        14     9      180.000000       11.373662         2
        13        16        17        14     9        0.000000       -1.302574         3
        13        16        17        14     9      180.000000       -0.130708         4
        13        16        17        15     9        0.000000       -1.023615         1
        13        16        17        15     9      180.000000       12.124838         2
        13        16        17        15     9        0.000000       -1.681133         3
        13        16        17        15     9      180.000000       -0.210330         4
        14        17        15        19     9        0.000000        0.408334         1
        14        17        15        19     9      180.000000        8.732003         2
        14        17        15        19     9        0.000000        0.369770         3
        14        17        15        19     9      180.000000       -0.541399         4
        15         2         5        18     9        0.000000       -0.034387         1
        15         2         5        18     9      180.000000       23.439413         2
        15         2         5        18     9        0.000000        0.373858         3
        15         2         5        18     9      180.000000       -0.532329         4
        15        17        14        38     9        0.000000       -0.328033         1
        15        17        14        38     9      180.000000       10.236696         2
        15        17        14        38     9        0.000000       -0.235756         3
        15        17        14        38     9      180.000000       -0.140510         4
        15        19        23        27     9        0.000000       -3.164326         1
        15        19        23        27     9      180.000000       -0.536349         2
        15        19        23        27     9        0.000000        0.289564         3
        15        19        23        27     9      180.000000        0.032049         4
        15        19        23        43     9        0.000000        0.036836         1
        15        19        23        43     9      180.000000        0.094109         2
        15        19        23        43     9        0.000000        0.155876         3
        15        19        23        43     9      180.000000        0.086835         4
        15        19        23        44     9        0.000000        0.036836         1
        15        19        23        44     9      180.000000        0.094109         2
        15        19        23        44     9        0.000000        0.155876         3
        15        19        23        44     9      180.000000        0.086835         4
        15        19        24        28     9        0.000000       -3.164326         1
        15        19        24        28     9      180.000000       -0.536349         2
        15        19        24        28     9        0.000000        0.289564         3
        15        19        24        28     9      180.000000        0.032049         4
        15        19        24        45     9        0.000000        0.036836         1
        15        19        24        45     9      180.000000        0.094109         2
        15        19        24        45     9        0.000000        0.155876         3
        15        19        24        45     9      180.000000        0.086835         4
        15        19        24        46     9        0.000000        0.036836         1
        15        19        24        46     9      180.000000        0.094109         2
        15        19        24        46     9        0.000000        0.155876         3
        15        19        24        46     9      180.000000        0.086835         4
        16         3         5        18     9        0.000000        0.309652         1
        16         3         5        18     9      180.000000       32.487985         2
        16         3         5        18     9        0.000000        0.619183         3
        16         3         5        18     9      180.000000       -1.647716         4
        16        17        14        38     9        0.000000       -0.177071         1
        16        17        14        38     9      180.000000       11.759750         2
        16        17        14        38     9        0.000000       -0.314266         3
        16        17        14        38     9      180.000000       -0.070023         4
        16        17        15        19     9        0.000000        0.471166         1
        16        17        15        19     9      180.000000       11.113094         2
        16        17        15        19     9        0.000000        0.553554         3
        16        17        15        19     9      180.000000       -0.566169         4
        17        15        19        23     9        0.000000        5.863082         1
        17        15        19        23     9      180.000000        8.677247         2
        17        15        19        23     9        0.000000       -0.065153         3
        17        15        19        23     9      180.000000        0.144114         4
        17        15        19        24     9        0.000000        5.863082         1
        17        15        19        24     9      180.000000        8.677247         2
        17        15        19        24     9        0.000000       -0.065153         3
        17        15        19        24     9      180.000000        0.144114         4
        17        16        13        31     9        0.000000        0.085502         1
        17        16        13        31     9      180.000000       18.250402         2
        17        16        13        31     9        0.000000       -0.080620         3
        17        16        13        31     9      180.000000       -0.546470         4
        18        20        22        21     9        0.000000       -0.071845         1
        18        20        22        21     9      180.000000       25.032668         2
        18        20        22        21     9        0.000000       -1.643268         3
        18        20        22        21     9      180.000000       -3.978054         4
        18        20        22        32     9        0.000000       -0.059416         1
        18        20        22        32     9      180.000000       -0.125294         2
        18        20        22        32     9        0.000000        0.151895         3
        18        20        22        32     9      180.000000        0.355804         4
        18        20        22        33     9        0.000000       -0.059416         1
        18        20        22        33     9      180.000000       -0.125294         2
        18        20        22        33     9        0.000000        0.151895         3
        18        20        22        33     9      180.000000        0.355804         4
        18        21        22        20     9        0.000000       -0.071845         1
        18        21        22        20     9      180.000000       25.032668         2
        18        21        22        20     9        0.000000       -1.643268         3
        18        21        22        20     9      180.000000       -3.978054         4
        18        21        22        32     9        0.000000       -0.059416         1
        18        21        22        32     9      180.000000       -0.125294         2
        18        21        22        32     9        0.000000        0.151895         3
        18        21        22        32     9      180.000000        0.355804         4
        18        21        22        33     9        0.000000       -0.059416         1
        18        21        22        33     9      180.000000       -0.125294         2
        18        21        22        33     9        0.000000        0.151895         3
        18        21        22        33     9      180.000000        0.355804         4
        19        23        27        25     9        0.000000        8.387213         1
        19        23        27        25     9      180.000000        2.746587         2
        19        23        27        25     9        0.000000        1.182915         3
        19        23        27        25     9      180.000000       -0.285216         4
        19        23        27        29     9        0.000000        9.321991         1
        19        23        27        29     9      180.000000       -0.406558         2
        19        23        27        29     9        0.000000        1.290462         3
        19        23        27        29     9      180.000000       -0.437496         4
        19        23        27        51     9        0.000000       -0.277590         1
        19        23        27        51     9      180.000000       -1.231685         2
        19        23        27        51     9        0.000000        0.784484         3
        19        23        27        51     9      180.000000        0.147102         4
        19        24        28        26     9        0.000000        8.387213         1
        19        24        28        26     9      180.000000        2.746587         2
        19        24        28        26     9        0.000000        1.182915         3
        19        24        28        26     9      180.000000       -0.285216         4
        19        24        28        29     9        0.000000        9.321991         1
        19        24        28        29     9      180.000000       -0.406558         2
        19        24        28        29     9        0.000000        1.290462         3
        19        24        28        29     9      180.000000       -0.437496         4
        19        24        28        52     9        0.000000       -0.277590         1
        19        24        28        52     9      180.000000       -1.231685         2
        19        24        28        52     9        0.000000        0.784484         3
        19        24        28        52     9      180.000000        0.147102         4
        20        18        21        22     9        0.000000       -0.216742         1
        20        18        21        22     9      180.000000       25.764992         2
        20        18        21        22     9        0.000000       -1.845074         3
        20        18        21        22     9      180.000000       -3.864612         4
        20        18        21        41     9        0.000000        0.415756         1
        20        18        21        41     9      180.000000       -0.407143         2
        20        18        21        41     9        0.000000        0.059319         3
        20        18        21        41     9      180.000000        0.418753         4
        20        18        21        42     9        0.000000        0.415756         1
        20        18        21        42     9      180.000000       -0.407143         2
        20        18        21        42     9        0.000000        0.059319         3
        20        18        21        42     9      180.000000        0.418753         4
        20        22        21        41     9        0.000000        0.350985         1
        20        22        21        41     9      180.000000       -0.070591         2
        20        22        21        41     9        0.000000        0.056815         3
        20        22        21        41     9      180.000000        0.510059         4
        20        22        21        42     9        0.000000        0.350985         1
        20        22        21        42     9      180.000000       -0.070591         2
        20        22        21        42     9        0.000000        0.056815         3
        20        22        21        42     9      180.000000        0.510059         4
        21        18        20        22     9        0.000000       -0.216742         1
        21        18        20        22     9      180.000000       25.764992         2
        21        18        20        22     9        0.000000       -1.845074         3
        21        18        20        22     9      180.000000       -3.864612         4
        21        18        20        39     9        0.000000        0.415756         1
        21        18        20        39     9      180.000000       -0.407143         2
        21        18        20        39     9        0.000000        0.059319         3
        21        18        20        39     9      180.000000        0.418753         4
        21        18        20        40     9        0.000000        0.415756         1
        21        18        20        40     9      180.000000       -0.407143         2
        21        18        20        40     9        0.000000        0.059319         3
        21        18        20        40     9      180.000000        0.418753         4
        21        22        20        39     9        0.000000        0.350985         1
        21        22        20        39     9      180.000000       -0.070591         2
        21        22        20        39     9        0.000000        0.056815         3
        21        22        20        39     9      180.000000        0.510059         4
        21        22        20        40     9        0.000000        0.350985         1
        21        22        20        40     9      180.000000       -0.070591         2
        21        22        20        40     9        0.000000        0.056815         3
        21        22        20        40     9      180.000000        0.510059         4
        22        20        18        53     9        0.000000        0.399860         1
        22        20        18        53     9      180.000000        1.131490         2
        22        20        18        53     9        0.000000        0.246002         3
        22        20        18        53     9      180.000000        0.896860         4
        22        21        18        53     9        0.000000        0.399860         1
        22        21        18        53     9      180.000000        1.131490         2
        22        21        18        53     9        0.000000        0.246002         3
        22        21        18        53     9      180.000000        0.896860         4
        23        19        24        28     9        0.000000        3.149555         1
        23        19        24        28     9      180.000000       -3.005568         2
        23        19        24        28     9        0.000000        0.589589         3
        23        19        24        28     9      180.000000        0.070002         4
        23        19        24        45     9        0.000000       -0.411262         1
        23        19        24        45     9      180.000000        0.268135         2
        23        19        24        45     9        0.000000        0.792166         3
        23        19        24        45     9      180.000000       -0.003369         4
        23        19        24        46     9        0.000000       -0.411262         1
        23        19        24        46     9      180.000000        0.268135         2
        23        19        24        46     9        0.000000        0.792166         3
        23        19        24        46     9      180.000000       -0.003369         4
        23        27        25        26     9        0.000000        0.958481         1
        23        27        25        26     9      180.000000        1.828221         2
        23        27        25        26     9        0.000000        0.287884         3
        23        27        25        26     9      180.000000       -0.116139         4
        23        27        25        47     9        0.000000       -0.152771         1
        23        27        25        47     9      180.000000       -0.126016         2
        23        27        25        47     9        0.000000        0.292799         3
        23        27        25        47     9      180.000000        0.022367         4
        23        27        25        48     9        0.000000       -0.152771         1
        23        27        25        48     9      180.000000       -0.126016         2
        23        27        25        48     9        0.000000        0.292799         3
        23        27        25        48     9      180.000000        0.022367         4
        23        27        29        28     9        0.000000       -0.856049         1
        23        27        29        28     9      180.000000       -3.154684         2
        23        27        29        28     9        0.000000        0.341031         3
        23        27        29        28     9      180.000000       -0.429376         4
        23        27        29        54     9        0.000000        3.791331         1
        23        27        29        54     9      180.000000        0.915303         2
        23        27        29        54     9        0.000000        0.458894         3
        23        27        29        54     9      180.000000        0.414023         4
        23        27        29        55     9        0.000000        3.791331         1
        23        27        29        55     9      180.000000        0.915303         2
        23        27        29        55     9        0.000000        0.458894         3
        23        27        29        55     9      180.000000        0.414023         4
        24        19        23        27     9        0.000000        3.149555         1
        24        19        23        27     9      180.000000       -3.005568         2
        24        19        23        27     9        0.000000        0.589589         3
        24        19        23        27     9      180.000000        0.070002         4
        24        19        23        43     9        0.000000       -0.411262         1
        24        19        23        43     9      180.000000        0.268135         2
        24        19        23        43     9        0.000000        0.792166         3
        24        19        23        43     9      180.000000       -0.003369         4
        24        19        23        44     9        0.000000       -0.411262         1
        24        19        23        44     9      180.000000        0.268135         2
        24        19        23        44     9        0.000000        0.792166         3
        24        19        23        44     9      180.000000       -0.003369         4
        24        28        26        25     9        0.000000        0.958481         1
        24        28        26        25     9      180.000000        1.828221         2
        24        28        26        25     9        0.000000        0.287884         3
        24        28        26        25     9      180.000000       -0.116139         4
        24        28        26        49     9        0.000000       -0.152771         1
        24        28        26        49     9      180.000000       -0.126016         2
        24        28        26        49     9        0.000000        0.292799         3
        24        28        26        49     9      180.000000        0.022367         4
        24        28        26        50     9        0.000000       -0.152771         1
        24        28        26        50     9      180.000000       -0.126016         2
        24        28        26        50     9        0.000000        0.292799         3
        24        28        26        50     9      180.000000        0.022367         4
        24        28        29        27     9        0.000000       -0.856049         1
        24        28        29        27     9      180.000000       -3.154684         2
        24        28        29        27     9        0.000000        0.341031         3
        24        28        29        27     9      180.000000       -0.429376         4
        24        28        29        54     9        0.000000        3.791331         1
        24        28        29        54     9      180.000000        0.915303         2
        24        28        29        54     9        0.000000        0.458894         3
        24        28        29        54     9      180.000000        0.414023         4
        24        28        29        55     9        0.000000        3.791331         1
        24        28        29        55     9      180.000000        0.915303         2
        24        28        29        55     9        0.000000        0.458894         3
        24        28        29        55     9      180.000000        0.414023         4
        25        26        28        29     9        0.000000       -6.720878         1
        25        26        28        29     9      180.000000       11.285333         2
        25        26        28        29     9        0.000000        0.310731         3
        25        26        28        29     9      180.000000       -2.781277         4
        25        26        28        52     9        0.000000        0.718087         1
        25        26        28        52     9      180.000000        0.470470         2
        25        26        28        52     9        0.000000        0.272977         3
        25        26        28        52     9      180.000000        0.606890         4
        25        27        23        43     9        0.000000       -0.249240         1
        25        27        23        43     9      180.000000        0.008704         2
        25        27        23        43     9        0.000000        0.634046         3
        25        27        23        43     9      180.000000        0.041269         4
        25        27        23        44     9        0.000000       -0.249240         1
        25        27        23        44     9      180.000000        0.008704         2
        25        27        23        44     9        0.000000        0.634046         3
        25        27        23        44     9      180.000000        0.041269         4
        25        27        29        28     9        0.000000       -8.011958         1
        25        27        29        28     9      180.000000        8.433473         2
        25        27        29        28     9        0.000000        0.257642         3
        25        27        29        28     9      180.000000       -4.599936         4
        25        27        29        54     9        0.000000       -3.138491         1
        25        27        29        54     9      180.000000        2.167025         2
        25        27        29        54     9        0.000000        0.241529         3
        25        27        29        54     9      180.000000       -0.244107         4
        25        27        29        55     9        0.000000       -3.138491         1
        25        27        29        55     9      180.000000        2.167025         2
        25        27        29        55     9        0.000000        0.241529         3
        25        27        29        55     9      180.000000       -0.244107         4
        26        25        27        29     9        0.000000       -6.720878         1
        26        25        27        29     9      180.000000       11.285333         2
        26        25        27        29     9        0.000000        0.310731         3
        26        25        27        29     9      180.000000       -2.781277         4
        26        25        27        51     9        0.000000        0.718087         1
        26        25        27        51     9      180.000000        0.470470         2
        26        25        27        51     9        0.000000        0.272977         3
        26        25        27        51     9      180.000000        0.606890         4
        26        28        24        45     9        0.000000       -0.249240         1
        26        28        24        45     9      180.000000        0.008704         2
        26        28        24        45     9        0.000000        0.634046         3
        26        28        24        45     9      180.000000        0.041269         4
        26        28        24        46     9        0.000000       -0.249240         1
        26        28        24        46     9      180.000000        0.008704         2
        26        28        24        46     9        0.000000        0.634046         3
        26        28        24        46     9      180.000000        0.041269         4
        26        28        29        27     9        0.000000       -8.011958         1
        26        28        29        27     9      180.000000        8.433473         2
        26        28        29        27     9        0.000000        0.257642         3
        26        28        29        27     9      180.000000       -4.599936         4
        26        28        29        54     9        0.000000       -3.138491         1
        26        28        29        54     9      180.000000        2.167025         2
        26        28        29        54     9        0.000000        0.241529         3
        26        28        29        54     9      180.000000       -0.244107         4
        26        28        29        55     9        0.000000       -3.138491         1
        26        28        29        55     9      180.000000        2.167025         2
        26        28        29        55     9        0.000000        0.241529         3
        26        28        29        55     9      180.000000       -0.244107         4
        27        25        26        28     9        0.000000       -0.441189         1
        27        25        26        28     9      180.000000        1.461411         2
        27        25        26        28     9        0.000000        0.090583         3
        27        25        26        28     9      180.000000       -1.237683         4
        27        25        26        49     9        0.000000       -0.040957         1
        27        25        26        49     9      180.000000       -0.134545         2
        27        25        26        49     9        0.000000        0.175830         3
        27        25        26        49     9      180.000000        0.068007         4
        27        25        26        50     9        0.000000       -0.040957         1
        27        25        26        50     9      180.000000       -0.134545         2
        27        25        26        50     9        0.000000        0.175830         3
        27        25        26        50     9      180.000000        0.068007         4
        27        29        28        52     9        0.000000       -1.122189         1
        27        29        28        52     9      180.000000       -5.819559         2
        27        29        28        52     9        0.000000        0.140568         3
        27        29        28        52     9      180.000000        0.114691         4
        28        26        25        47     9        0.000000       -0.040957         1
        28        26        25        47     9      180.000000       -0.134545         2
        28        26        25        47     9        0.000000        0.175830         3
        28        26        25        47     9      180.000000        0.068007         4
        28        26        25        48     9        0.000000       -0.040957         1
        28        26        25        48     9      180.000000       -0.134545         2
        28        26        25        48     9        0.000000        0.175830         3
        28        26        25        48     9      180.000000        0.068007         4
        28        29        27        51     9        0.000000       -1.122189         1
        28        29        27        51     9      180.000000       -5.819559         2
        28        29        27        51     9        0.000000        0.140568         3
        28        29        27        51     9      180.000000        0.114691         4
        29        27        23        43     9        0.000000       -0.109134         1
        29        27        23        43     9      180.000000        0.138443         2
        29        27        23        43     9        0.000000        0.755957         3
        29        27        23        43     9      180.000000       -0.087097         4
        29        27        23        44     9        0.000000       -0.109134         1
        29        27        23        44     9      180.000000        0.138443         2
        29        27        23        44     9        0.000000        0.755957         3
        29        27        23        44     9      180.000000       -0.087097         4
        29        27        25        47     9        0.000000       -0.566249         1
        29        27        25        47     9      180.000000        0.138173         2
        29        27        25        47     9        0.000000        0.237111         3
        29        27        25        47     9      180.000000       -0.093240         4
        29        27        25        48     9        0.000000       -0.566249         1
        29        27        25        48     9      180.000000        0.138173         2
        29        27        25        48     9        0.000000        0.237111         3
        29        27        25        48     9      180.000000       -0.093240         4
        29        28        24        45     9        0.000000       -0.109134         1
        29        28        24        45     9      180.000000        0.138443         2
        29        28        24        45     9        0.000000        0.755957         3
        29        28        24        45     9      180.000000       -0.087097         4
        29        28        24        46     9        0.000000       -0.109134         1
        29        28        24        46     9      180.000000        0.138443         2
        29        28        24        46     9        0.000000        0.755957         3
        29        28        24        46     9      180.000000       -0.087097         4
        29        28        26        49     9        0.000000       -0.566249         1
        29        28        26        49     9      180.000000        0.138173         2
        29        28        26        49     9        0.000000        0.237111         3
        29        28        26        49     9      180.000000       -0.093240         4
        29        28        26        50     9        0.000000       -0.566249         1
        29        28        26        50     9      180.000000        0.138173         2
        29        28        26        50     9        0.000000        0.237111         3
        29        28        26        50     9      180.000000       -0.093240         4
        30         9         7        35     9        0.000000        0.361616         1
        30         9         7        35     9      180.000000       17.196656         2
        30         9         7        35     9        0.000000        0.348249         3
        30         9         7        35     9      180.000000        0.129877         4
        32        22        20        39     9        0.000000       -0.037453         1
        32        22        20        39     9      180.000000        0.087960         2
        32        22        20        39     9        0.000000        0.671731         3
        32        22        20        39     9      180.000000       -0.067812         4
        32        22        20        40     9        0.000000       -0.037453         1
        32        22        20        40     9      180.000000        0.087960         2
        32        22        20        40     9        0.000000        0.671731         3
        32        22        20        40     9      180.000000       -0.067812         4
        32        22        21        41     9        0.000000       -0.037453         1
        32        22        21        41     9      180.000000        0.087960         2
        32        22        21        41     9        0.000000        0.671731         3
        32        22        21        41     9      180.000000       -0.067812         4
        32        22        21        42     9        0.000000       -0.037453         1
        32        22        21        42     9      180.000000        0.087960         2
        32        22        21        42     9        0.000000        0.671731         3
        32        22        21        42     9      180.000000       -0.067812         4
        33        22        20        39     9        0.000000       -0.037453         1
        33        22        20        39     9      180.000000        0.087960         2
        33        22        20        39     9        0.000000        0.671731         3
        33        22        20        39     9      180.000000       -0.067812         4
        33        22        20        40     9        0.000000       -0.037453         1
        33        22        20        40     9      180.000000        0.087960         2
        33        22        20        40     9        0.000000        0.671731         3
        33        22        20        40     9      180.000000       -0.067812         4
        33        22        21        41     9        0.000000       -0.037453         1
        33        22        21        41     9      180.000000        0.087960         2
        33        22        21        41     9        0.000000        0.671731         3
        33        22        21        41     9      180.000000       -0.067812         4
        33        22        21        42     9        0.000000       -0.037453         1
        33        22        21        42     9      180.000000        0.087960         2
        33        22        21        42     9        0.000000        0.671731         3
        33        22        21        42     9      180.000000       -0.067812         4
        36         8        10        37     9        0.000000       -0.196401         1
        36         8        10        37     9      180.000000       12.236038         2
        36         8        10        37     9        0.000000       -0.684912         3
        36         8        10        37     9      180.000000        0.344727         4
        39        20        18        53     9        0.000000        0.054817         1
        39        20        18        53     9      180.000000       -0.217205         2
        39        20        18        53     9        0.000000        0.576830         3
        39        20        18        53     9      180.000000        0.050256         4
        40        20        18        53     9        0.000000        0.054817         1
        40        20        18        53     9      180.000000       -0.217205         2
        40        20        18        53     9        0.000000        0.576830         3
        40        20        18        53     9      180.000000        0.050256         4
        41        21        18        53     9        0.000000        0.054817         1
        41        21        18        53     9      180.000000       -0.217205         2
        41        21        18        53     9        0.000000        0.576830         3
        41        21        18        53     9      180.000000        0.050256         4
        42        21        18        53     9        0.000000        0.054817         1
        42        21        18        53     9      180.000000       -0.217205         2
        42        21        18        53     9        0.000000        0.576830         3
        42        21        18        53     9      180.000000        0.050256         4
        43        23        27        51     9        0.000000        0.154148         1
        43        23        27        51     9      180.000000        0.583964         2
        43        23        27        51     9        0.000000        0.589181         3
        43        23        27        51     9      180.000000       -0.059466         4
        44        23        27        51     9        0.000000        0.154148         1
        44        23        27        51     9      180.000000        0.583964         2
        44        23        27        51     9        0.000000        0.589181         3
        44        23        27        51     9      180.000000       -0.059466         4
        45        24        28        52     9        0.000000        0.154148         1
        45        24        28        52     9      180.000000        0.583964         2
        45        24        28        52     9        0.000000        0.589181         3
        45        24        28        52     9      180.000000       -0.059466         4
        46        24        28        52     9        0.000000        0.154148         1
        46        24        28        52     9      180.000000        0.583964         2
        46        24        28        52     9        0.000000        0.589181         3
        46        24        28        52     9      180.000000       -0.059466         4
        47        25        26        49     9        0.000000        0.035023         1
        47        25        26        49     9      180.000000        0.050947         2
        47        25        26        49     9        0.000000        0.415366         3
        47        25        26        49     9      180.000000       -0.045839         4
        47        25        26        50     9        0.000000        0.035023         1
        47        25        26        50     9      180.000000        0.050947         2
        47        25        26        50     9        0.000000        0.415366         3
        47        25        26        50     9      180.000000       -0.045839         4
        47        25        27        51     9        0.000000       -0.104800         1
        47        25        27        51     9      180.000000        0.054431         2
        47        25        27        51     9        0.000000        0.500456         3
        47        25        27        51     9      180.000000       -0.079028         4
        48        25        26        49     9        0.000000        0.035023         1
        48        25        26        49     9      180.000000        0.050947         2
        48        25        26        49     9        0.000000        0.415366         3
        48        25        26        49     9      180.000000       -0.045839         4
        48        25        26        50     9        0.000000        0.035023         1
        48        25        26        50     9      180.000000        0.050947         2
        48        25        26        50     9        0.000000        0.415366         3
        48        25        26        50     9      180.000000       -0.045839         4
        48        25        27        51     9        0.000000       -0.104800         1
        48        25        27        51     9      180.000000        0.054431         2
        48        25        27        51     9        0.000000        0.500456         3
        48        25        27        51     9      180.000000       -0.079028         4
        49        26        28        52     9        0.000000       -0.104800         1
        49        26        28        52     9      180.000000        0.054431         2
        49        26        28        52     9        0.000000        0.500456         3
        49        26        28        52     9      180.000000       -0.079028         4
        50        26        28        52     9        0.000000       -0.104800         1
        50        26        28        52     9      180.000000        0.054431         2
        50        26        28        52     9        0.000000        0.500456         3
        50        26        28        52     9      180.000000       -0.079028         4
        51        27        29        54     9        0.000000       -0.497216         1
        51        27        29        54     9      180.000000        2.354124         2
        51        27        29        54     9        0.000000        0.397744         3
        51        27        29        54     9      180.000000        0.067520         4
        51        27        29        55     9        0.000000       -0.497216         1
        51        27        29        55     9      180.000000        2.354124         2
        51        27        29        55     9        0.000000        0.397744         3
        51        27        29        55     9      180.000000        0.067520         4
        52        28        29        54     9        0.000000       -0.497216         1
        52        28        29        54     9      180.000000        2.354124         2
        52        28        29        54     9        0.000000        0.397744         3
        52        28        29        54     9      180.000000        0.067520         4
        52        28        29        55     9        0.000000       -0.497216         1
        52        28        29        55     9      180.000000        2.354124         2
        52        28        29        55     9        0.000000        0.397744         3
        52        28        29        55     9      180.000000        0.067520         4

[ dihedrals ] ; impropers
;       ai        aj        ak        al funct           phase               k        pn
         5         2         3        18     4      180.000000       18.530316         2
         5         3        18         2     4      180.000000       18.530316         2
         5        18         2         3     4      180.000000       18.530316         2
         6         1        12        13     4      180.000000        0.746393         2
         6        12        13         1     4      180.000000        0.746393         2
         6        13         1        12     4      180.000000        0.746393         2
        11         4         7         8     4      180.000000        2.335618         2
        11         7         8         4     4      180.000000        2.335618         2
        11         8         4         7     4      180.000000        2.335618         2
        14         1        17        38     4      180.000000        1.933432         2
        14        17        38         1     4      180.000000        1.933432         2
        14        38         1        17     4      180.000000        1.933432         2
        15         2        17        19     4      180.000000        7.485750         2
        15        17        19         2     4      180.000000        7.485750         2
        15        19         2        17     4      180.000000        7.485750         2

[ pairs ]
;       ai        aj funct
         1         9     1
         1        10     1
         1        15     1
         1        16     1
         1        31     1
         2        14     1
         2        16     1
         2        20     1
         2        21     1
         2        23     1
         2        24     1
         2        53     1
         3         6     1
         3        14     1
         3        15     1
         3        20     1
         3        21     1
         3        31     1
         3        53     1
         4         9     1
         4        10     1
         4        35     1
         4        36     1
         5        13     1
         5        17     1
         5        19     1
         5        22     1
         5        39     1
         5        40     1
         5        41     1
         5        42     1
         6         7     1
         6         8     1
         6        17     1
         6        30     1
         6        37     1
         6        38     1
         7        10     1
         7        34     1
         7        36     1
         8         9     1
         8        34     1
         8        35     1
         9        13     1
         9        37     1
        10        13     1
        10        30     1
        11        12     1
        11        30     1
        11        37     1
        12        14     1
        12        16     1
        12        31     1
        12        35     1
        12        36     1
        13        14     1
        13        15     1
        14        19     1
        15        18     1
        15        27     1
        15        28     1
        15        38     1
        15        43     1
        15        44     1
        15        45     1
        15        46     1
        16        18     1
        16        19     1
        16        38     1
        17        23     1
        17        24     1
        17        31     1
        18        32     1
        18        33     1
        19        25     1
        19        26     1
        19        29     1
        19        51     1
        19        52     1
        20        41     1
        20        42     1
        21        39     1
        21        40     1
        22        53     1
        23        26     1
        23        28     1
        23        45     1
        23        46     1
        23        47     1
        23        48     1
        23        54     1
        23        55     1
        24        25     1
        24        27     1
        24        43     1
        24        44     1
        24        49     1
        24        50     1
        24        54     1
        24        55     1
        25        43     1
        25        44     1
        25        52     1
        25        54     1
        25        55     1
        26        45     1
        26        46     1
        26        51     1
        26        54     1
        26        55     1
        27        49     1
        27        50     1
        27        52     1
        28        47     1
        28        48     1
        28        51     1
        29        43     1
        29        44     1
        29        45     1
        29        46     1
        29        47     1
        29        48     1
        29        49     1
        29        50     1
        30        35     1
        32        39     1
        32        40     1
        32        41     1
        32        42     1
        33        39     1
        33        40     1
        33        41     1
        33        42     1
        36        37     1
        39        53     1
        40        53     1
        41        53     1
        42        53     1
        43        51     1
        44        51     1
        45        52     1
        46        52     1
        47        49     1
        47        50     1
        47        51     1
        48        49     1
        48        50     1
        48        51     1
        49        52     1
        50        52     1
        51        54     1
        51        55     1
        52        54     1
        52        55     1
