clashed crystal waters from jacs/ptp1b
12
    4SOL     OW   10   3.491   0.811   1.198
    4SOL    HW1   11   3.572   0.863   1.228
    4SOL    HW2   12   3.498   0.717   1.232
   22SOL     OW   64   3.621   0.442   0.943
   22SOL    HW1   65   3.634   0.371   1.013
   22SOL    HW2   66   3.634   0.400   0.852
   89SOL     OW  265   3.452   0.514   1.207
   89SOL    HW1  266   3.425   0.476   1.296
   89SOL    HW2  267   3.515   0.451   1.161
  203SOL     OW  607   3.642   0.241   1.149
  203SOL    HW1  608   3.577   0.179   1.193
  203SOL    HW2  609   3.722   0.189   1.118
    8.3797    8.3797    8.3797
