Generated by PDBParser (exclude clash < 1.000 A)
657
    1SOL     OW    1   3.067   1.914  -1.938
    1SOL    HW1    2   3.051   1.929  -2.035
    1SOL    HW2    3   3.098   1.819  -1.924
    2SOL     OW    4   4.266   1.453   1.125
    2SOL    HW1    5   4.288   1.526   1.060
    2SOL    HW2    6   4.231   1.493   1.209
    3SOL     OW    7   4.335   2.108  -1.403
    3SOL    HW1    8   4.311   2.046  -1.478
    3SOL    HW2    9   4.395   2.180  -1.437
    5SOL     OW   13   5.162   2.707   1.154
    5SOL    HW1   14   5.258   2.716   1.124
    5SOL    HW2   15   5.154   2.739   1.248
    6SOL     OW   16   4.293   0.323   0.695
    6SOL    HW1   17   4.360   0.332   0.769
    6SOL    HW2   18   4.261   0.228   0.690
    7SOL     OW   19   5.705   1.572  -0.747
    7SOL    HW1   20   5.642   1.649  -0.748
    7SOL    HW2   21   5.681   1.510  -0.671
    8SOL     OW   22   4.893   0.400   1.407
    8SOL    HW1   23   4.864   0.490   1.438
    8SOL    HW2   24   4.947   0.356   1.479
    9SOL     OW   25   4.577   0.315   0.310
    9SOL    HW1   26   4.624   0.228   0.325
    9SOL    HW2   27   4.502   0.301   0.246
   10SOL     OW   28   5.293   0.284   0.393
   10SOL    HW1   29   5.250   0.351   0.453
   10SOL    HW2   30   5.316   0.328   0.306
   11SOL     OW   31   5.307   1.267   0.654
   11SOL    HW1   32   5.247   1.214   0.593
   11SOL    HW2   33   5.254   1.342   0.694
   12SOL     OW   34   5.492   0.826   0.857
   12SOL    HW1   35   5.584   0.799   0.830
   12SOL    HW2   36   5.473   0.794   0.951
   13SOL     OW   37   5.458   1.116   0.840
   13SOL    HW1   38   5.458   1.017   0.822
   13SOL    HW2   39   5.409   1.163   0.767
   14SOL     OW   40   5.752   0.738   0.752
   14SOL    HW1   41   5.845   0.775   0.751
   14SOL    HW2   42   5.746   0.663   0.686
   15SOL     OW   43   4.948   1.702  -0.731
   15SOL    HW1   44   4.872   1.761  -0.761
   15SOL    HW2   45   4.934   1.610  -0.766
   16SOL     OW   46   3.051   1.509   1.620
   16SOL    HW1   47   3.042   1.608   1.617
   16SOL    HW2   48   2.965   1.468   1.651
   17SOL     OW   49   6.592   2.272  -0.331
   17SOL    HW1   50   6.644   2.295  -0.413
   17SOL    HW2   51   6.496   2.258  -0.355
   18SOL     OW   52   2.800   2.280   0.931
   18SOL    HW1   53   2.803   2.255   1.029
   18SOL    HW2   54   2.853   2.213   0.879
   19SOL     OW   55   4.421   2.553   0.999
   19SOL    HW1   56   4.481   2.567   0.920
   19SOL    HW2   57   4.380   2.462   0.993
   20SOL     OW   58   6.119   3.549  -0.245
   20SOL    HW1   59   6.123   3.465  -0.299
   20SOL    HW2   60   6.108   3.527  -0.148
   21SOL     OW   61   5.740  -0.158   0.694
   21SOL    HW1   62   5.798  -0.082   0.662
   21SOL    HW2   63   5.718  -0.217   0.616
   23SOL     OW   67   2.708   0.945  -0.661
   23SOL    HW1   68   2.795   0.934  -0.709
   23SOL    HW2   69   2.639   0.976  -0.726
   24SOL     OW   70   3.216   0.792  -0.647
   24SOL    HW1   71   3.148   0.784  -0.722
   24SOL    HW2   72   3.291   0.728  -0.664
   25SOL     OW   73   4.464   1.537  -0.750
   25SOL    HW1   74   4.516   1.528  -0.835
   25SOL    HW2   75   4.440   1.446  -0.716
   26SOL     OW   76   6.520   1.380   0.736
   26SOL    HW1   77   6.524   1.299   0.676
   26SOL    HW2   78   6.611   1.398   0.773
   27SOL     OW   79   3.742   0.117  -0.739
   27SOL    HW1   80   3.826   0.173  -0.741
   27SOL    HW2   81   3.698   0.121  -0.829
   28SOL     OW   82   4.612   2.961  -0.766
   28SOL    HW1   83   4.710   2.945  -0.752
   28SOL    HW2   84   4.561   2.879  -0.738
   29SOL     OW   85   6.281   1.391   0.912
   29SOL    HW1   86   6.303   1.418   1.006
   29SOL    HW2   87   6.365   1.389   0.857
   30SOL     OW   88   3.711   3.217  -0.524
   30SOL    HW1   89   3.779   3.257  -0.462
   30SOL    HW2   90   3.643   3.287  -0.547
   31SOL     OW   91   6.250   1.118   0.728
   31SOL    HW1   92   6.228   1.091   0.822
   31SOL    HW2   93   6.336   1.073   0.701
   32SOL     OW   94   4.395   1.728   1.253
   32SOL    HW1   95   4.303   1.715   1.215
   32SOL    HW2   96   4.390   1.723   1.353
   33SOL     OW   97   2.919   3.149   0.231
   33SOL    HW1   98   2.900   3.242   0.262
   33SOL    HW2   99   2.847   3.119   0.168
   34SOL     OW  100   5.635   0.684  -0.237
   34SOL    HW1  101   5.732   0.698  -0.254
   34SOL    HW2  102   5.619   0.590  -0.208
   35SOL     OW  103   3.019   0.366  -0.415
   35SOL    HW1  104   3.117   0.345  -0.426
   35SOL    HW2  105   2.994   0.353  -0.319
   36SOL     OW  106   5.955   2.068   1.415
   36SOL    HW1  107   5.870   2.074   1.467
   36SOL    HW2  108   6.026   2.122   1.462
   37SOL     OW  109   4.392   2.151  -1.118
   37SOL    HW1  110   4.363   2.245  -1.102
   37SOL    HW2  111   4.368   2.125  -1.212
   38SOL     OW  112   4.430  -0.385   0.378
   38SOL    HW1  113   4.453  -0.381   0.476
   38SOL    HW2  114   4.472  -0.467   0.338
   39SOL     OW  115   5.897  -0.479   1.330
   39SOL    HW1  116   5.976  -0.505   1.386
   39SOL    HW2  117   5.864  -0.559   1.280
   40SOL     OW  118   4.000   0.279  -0.713
   40SOL    HW1  119   3.985   0.370  -0.674
   40SOL    HW2  120   4.055   0.224  -0.651
   41SOL     OW  121   3.671   0.317   0.692
   41SOL    HW1  122   3.662   0.219   0.712
   41SOL    HW2  123   3.699   0.329   0.597
   42SOL     OW  124   4.846   0.890   1.280
   42SOL    HW1  125   4.801   0.802   1.261
   42SOL    HW2  126   4.914   0.908   1.209
   43SOL     OW  127   5.806   2.152  -1.205
   43SOL    HW1  128   5.793   2.243  -1.245
   43SOL    HW2  129   5.873   2.101  -1.259
   44SOL     OW  130   3.023   2.583  -1.588
   44SOL    HW1  131   2.930   2.549  -1.609
   44SOL    HW2  132   3.042   2.571  -1.491
   45SOL     OW  133   6.384   1.771   0.879
   45SOL    HW1  134   6.394   1.754   0.977
   45SOL    HW2  135   6.468   1.814   0.844
   46SOL     OW  136   5.147   2.741   1.463
   46SOL    HW1  137   5.235   2.757   1.508
   46SOL    HW2  138   5.073   2.754   1.529
   47SOL     OW  139   4.503  -0.321  -0.376
   47SOL    HW1  140   4.538  -0.275  -0.458
   47SOL    HW2  141   4.528  -0.266  -0.295
   48SOL     OW  142   3.523   2.002  -1.111
   48SOL    HW1  143   3.476   2.038  -1.193
   48SOL    HW2  144   3.578   1.923  -1.137
   49SOL     OW  145   4.532   2.296  -1.526
   49SOL    HW1  146   4.522   2.392  -1.554
   49SOL    HW2  147   4.616   2.259  -1.566
   50SOL     OW  148   3.362   0.249   0.369
   50SOL    HW1  149   3.348   0.300   0.284
   50SOL    HW2  150   3.384   0.154   0.347
   51SOL     OW  151   5.077  -0.370   0.178
   51SOL    HW1  152   5.018  -0.292   0.161
   51SOL    HW2  153   5.023  -0.454   0.171
   52SOL     OW  154   2.082   1.280  -0.110
   52SOL    HW1  155   2.005   1.341  -0.129
   52SOL    HW2  156   2.100   1.280  -0.011
   53SOL     OW  157   2.763   2.447  -1.650
   53SOL    HW1  158   2.670   2.435  -1.683
   53SOL    HW2  159   2.775   2.398  -1.564
   54SOL     OW  160   6.491   2.814   0.152
   54SOL    HW1  161   6.468   2.857   0.240
   54SOL    HW2  162   6.555   2.873   0.103
   55SOL     OW  163   2.190   1.873   1.447
   55SOL    HW1  164   2.117   1.904   1.508
   55SOL    HW2  165   2.218   1.948   1.387
   56SOL     OW  166   3.222   2.298   1.438
   56SOL    HW1  167   3.261   2.390   1.439
   56SOL    HW2  168   3.139   2.298   1.381
   57SOL     OW  169   3.682   0.442  -0.619
   57SOL    HW1  170   3.628   0.391  -0.551
   57SOL    HW2  171   3.772   0.463  -0.582
   58SOL     OW  172   5.144   3.288   0.714
   58SOL    HW1  173   5.136   3.200   0.761
   58SOL    HW2  174   5.098   3.283   0.625
   59SOL     OW  175   5.244  -0.626   1.523
   59SOL    HW1  176   5.246  -0.526   1.533
   59SOL    HW2  177   5.200  -0.650   1.436
   60SOL     OW  178   2.745   3.296  -1.667
   60SOL    HW1  179   2.813   3.355  -1.624
   60SOL    HW2  180   2.743   3.208  -1.620
   61SOL     OW  181   2.483   2.400  -1.737
   61SOL    HW1  182   2.466   2.384  -1.835
   61SOL    HW2  183   2.401   2.440  -1.695
   62SOL     OW  184   5.122  -0.650   1.249
   62SOL    HW1  185   5.144  -0.573   1.188
   62SOL    HW2  186   5.157  -0.735   1.209
   63SOL     OW  187   5.939   1.042  -0.960
   63SOL    HW1  188   5.893   1.069  -0.875
   63SOL    HW2  189   6.024   0.995  -0.938
   64SOL     OW  190   4.642   1.495  -0.984
   64SOL    HW1  191   4.653   1.539  -1.074
   64SOL    HW2  192   4.733   1.482  -0.943
   65SOL     OW  193   3.522   1.034   1.810
   65SOL    HW1  194   3.615   1.009   1.837
   65SOL    HW2  195   3.483   1.095   1.880
   66SOL     OW  196   3.159   1.632  -1.913
   66SOL    HW1  197   3.109   1.576  -1.847
   66SOL    HW2  198   3.222   1.575  -1.965
   67SOL     OW  199   5.688   2.128   1.546
   67SOL    HW1  200   5.598   2.110   1.505
   67SOL    HW2  201   5.698   2.226   1.563
   68SOL     OW  202   3.270   2.007   1.456
   68SOL    HW1  203   3.243   2.104   1.449
   68SOL    HW2  204   3.362   2.001   1.495
   69SOL     OW  205   5.451   2.957   0.898
   69SOL    HW1  206   5.505   3.032   0.935
   69SOL    HW2  207   5.459   2.878   0.959
   70SOL     OW  208   6.517   1.202  -1.117
   70SOL    HW1  209   6.473   1.264  -1.183
   70SOL    HW2  210   6.450   1.135  -1.085
   71SOL     OW  211   4.715  -0.732   0.517
   71SOL    HW1  212   4.662  -0.779   0.588
   71SOL    HW2  213   4.750  -0.645   0.555
   72SOL     OW  214   2.508   2.617   0.120
   72SOL    HW1  215   2.469   2.675   0.049
   72SOL    HW2  216   2.600   2.587   0.093
   73SOL     OW  217   6.893   2.888  -0.009
   73SOL    HW1  218   6.926   2.827   0.064
   73SOL    HW2  219   6.815   2.941   0.024
   74SOL     OW  220   4.100   0.790  -1.018
   74SOL    HW1  221   4.101   0.696  -1.050
   74SOL    HW2  222   4.011   0.811  -0.976
   75SOL     OW  223   3.338   3.508  -1.048
   75SOL    HW1  224   3.388   3.595  -1.048
   75SOL    HW2  225   3.276   3.506  -1.126
   76SOL     OW  226   5.693   0.953   1.687
   76SOL    HW1  227   5.730   0.928   1.598
   76SOL    HW2  228   5.594   0.938   1.687
   77SOL     OW  229   6.263   2.286   1.045
   77SOL    HW1  230   6.184   2.236   1.009
   77SOL    HW2  231   6.317   2.226   1.104
   78SOL     OW  232   3.561   0.055  -0.507
   78SOL    HW1  233   3.631   0.056  -0.578
   78SOL    HW2  234   3.548   0.148  -0.472
   79SOL     OW  235   4.438   1.279  -1.001
   79SOL    HW1  236   4.511   1.348  -0.999
   79SOL    HW2  237   4.470   1.198  -1.049
   80SOL     OW  238   2.369   1.715  -1.797
   80SOL    HW1  239   2.444   1.659  -1.764
   80SOL    HW2  240   2.343   1.781  -1.726
   81SOL     OW  241   2.883   2.560   0.945
   81SOL    HW1  242   2.889   2.571   1.045
   81SOL    HW2  243   2.856   2.466   0.923
   82SOL     OW  244   3.010   0.060  -0.179
   82SOL    HW1  245   3.002   0.157  -0.157
   82SOL    HW2  246   2.922   0.015  -0.164
   83SOL     OW  247   6.366   1.714   1.173
   83SOL    HW1  248   6.338   1.620   1.191
   83SOL    HW2  249   6.296   1.777   1.208
   84SOL     OW  250   6.407   1.014  -0.248
   84SOL    HW1  251   6.505   1.035  -0.256
   84SOL    HW2  252   6.393   0.949  -0.173
   85SOL     OW  253   3.277   1.315   1.656
   85SOL    HW1  254   3.328   1.310   1.570
   85SOL    HW2  255   3.201   1.380   1.646
   86SOL     OW  256   2.213   1.525  -0.492
   86SOL    HW1  257   2.245   1.592  -0.560
   86SOL    HW2  258   2.277   1.448  -0.490
   87SOL     OW  259   6.755   2.350  -0.558
   87SOL    HW1  260   6.703   2.386  -0.636
   87SOL    HW2  261   6.807   2.269  -0.588
   88SOL     OW  262   4.948  -0.028   0.688
   88SOL    HW1  263   4.932  -0.122   0.659
   88SOL    HW2  264   4.861   0.021   0.695
   90SOL     OW  268   4.545  -0.456   1.167
   90SOL    HW1  269   4.622  -0.487   1.222
   90SOL    HW2  270   4.464  -0.448   1.225
   91SOL     OW  271   3.519   1.451   1.783
   91SOL    HW1  272   3.432   1.409   1.757
   91SOL    HW2  273   3.502   1.531   1.839
   92SOL     OW  274   3.204   2.407  -1.752
   92SOL    HW1  275   3.141   2.475  -1.712
   92SOL    HW2  276   3.267   2.453  -1.815
   93SOL     OW  277   5.182   0.036   1.765
   93SOL    HW1  278   5.240   0.030   1.683
   93SOL    HW2  279   5.192  -0.048   1.818
   94SOL     OW  280   2.972   1.792   1.559
   94SOL    HW1  281   2.875   1.812   1.543
   94SOL    HW2  282   3.019   1.877   1.583
   95SOL     OW  283   2.343   3.016  -0.911
   95SOL    HW1  284   2.404   3.095  -0.924
   95SOL    HW2  285   2.351   2.955  -0.990
   96SOL     OW  286   6.335   0.999  -0.988
   96SOL    HW1  287   6.385   0.928  -0.938
   96SOL    HW2  288   6.296   0.960  -1.071
   97SOL     OW  289   6.167   0.406   1.178
   97SOL    HW1  290   6.220   0.489   1.194
   97SOL    HW2  291   6.222   0.326   1.203
   98SOL     OW  292   5.331   0.035   1.514
   98SOL    HW1  293   5.285   0.059   1.429
   98SOL    HW2  294   5.413  -0.019   1.493
   99SOL     OW  295   3.770   2.336   1.784
   99SOL    HW1  296   3.802   2.261   1.727
   99SOL    HW2  297   3.676   2.359   1.760
  100SOL     OW  298   2.984   0.355  -0.110
  100SOL    HW1  299   3.013   0.450  -0.118
  100SOL    HW2  300   2.926   0.345  -0.029
  101SOL     OW  301   7.149   2.575  -0.141
  101SOL    HW1  302   7.179   2.670  -0.155
  101SOL    HW2  303   7.147   2.555  -0.043
  102SOL     OW  304   4.439   0.289  -0.347
  102SOL    HW1  305   4.412   0.371  -0.296
  102SOL    HW2  306   4.539   0.281  -0.346
  103SOL     OW  307   5.822   3.584  -0.076
  103SOL    HW1  308   5.783   3.663  -0.030
  103SOL    HW2  309   5.903   3.553  -0.025
  104SOL     OW  310   4.684   1.583   1.956
  104SOL    HW1  311   4.678   1.560   1.859
  104SOL    HW2  312   4.592   1.581   1.996
  105SOL     OW  313   3.438   0.576  -0.736
  105SOL    HW1  314   3.517   0.534  -0.690
  105SOL    HW2  315   3.368   0.507  -0.751
  106SOL     OW  316   2.787   1.415   1.699
  106SOL    HW1  317   2.777   1.318   1.676
  106SOL    HW2  318   2.717   1.440   1.767
  107SOL     OW  319   2.416   2.780  -0.109
  107SOL    HW1  320   2.490   2.845  -0.129
  107SOL    HW2  321   2.403   2.721  -0.189
  108SOL     OW  322   2.356   1.387  -0.170
  108SOL    HW1  323   2.271   1.344  -0.138
  108SOL    HW2  324   2.355   1.392  -0.270
  109SOL     OW  325   2.761   1.135   1.624
  109SOL    HW1  326   2.836   1.070   1.609
  109SOL    HW2  327   2.680   1.104   1.575
  110SOL     OW  328   5.280  -0.714   0.736
  110SOL    HW1  329   5.290  -0.662   0.651
  110SOL    HW2  330   5.318  -0.806   0.723
  111SOL     OW  331   4.597  -0.026  -0.467
  111SOL    HW1  332   4.505   0.009  -0.488
  111SOL    HW2  333   4.603  -0.045  -0.369
  112SOL     OW  334   4.579  -0.635   0.267
  112SOL    HW1  335   4.627  -0.673   0.346
  112SOL    HW2  336   4.522  -0.706   0.225
  113SOL     OW  337   4.325   0.967  -1.090
  113SOL    HW1  338   4.245   0.910  -1.075
  113SOL    HW2  339   4.322   1.004  -1.183
  114SOL     OW  340   6.955   2.604   0.633
  114SOL    HW1  341   6.902   2.559   0.561
  114SOL    HW2  342   7.033   2.547   0.658
  115SOL     OW  343   4.421   2.612   1.298
  115SOL    HW1  344   4.450   2.518   1.320
  115SOL    HW2  345   4.399   2.617   1.200
  116SOL     OW  346   4.749   1.396  -1.900
  116SOL    HW1  347   4.771   1.492  -1.916
  116SOL    HW2  348   4.650   1.386  -1.889
  117SOL     OW  349   5.463   2.733   1.098
  117SOL    HW1  350   5.495   2.782   1.179
  117SOL    HW2  351   5.532   2.666   1.070
  118SOL     OW  352   3.420   2.551   1.402
  118SOL    HW1  353   3.330   2.595   1.402
  118SOL    HW2  354   3.485   2.610   1.355
  119SOL     OW  355   5.904   3.134  -1.066
  119SOL    HW1  356   5.905   3.213  -1.004
  119SOL    HW2  357   5.813   3.126  -1.107
  120SOL     OW  358   4.091   3.143  -0.563
  120SOL    HW1  359   4.062   3.095  -0.480
  120SOL    HW2  360   4.089   3.081  -0.641
  121SOL     OW  361   3.356   0.109  -0.732
  121SOL    HW1  362   3.404   0.121  -0.819
  121SOL    HW2  363   3.423   0.100  -0.658
  122SOL     OW  364   5.222   0.506   1.755
  122SOL    HW1  365   5.187   0.596   1.782
  122SOL    HW2  366   5.314   0.517   1.717
  123SOL     OW  367   5.166   0.875  -0.929
  123SOL    HW1  368   5.203   0.963  -0.898
  123SOL    HW2  369   5.228   0.801  -0.902
  124SOL     OW  370   3.652   2.484  -1.060
  124SOL    HW1  371   3.624   2.566  -1.010
  124SOL    HW2  372   3.675   2.508  -1.154
  125SOL     OW  373   2.252   1.609   1.580
  125SOL    HW1  374   2.154   1.594   1.593
  125SOL    HW2  375   2.267   1.700   1.541
  126SOL     OW  376   2.309   0.749   0.087
  126SOL    HW1  377   2.353   0.812   0.023
  126SOL    HW2  378   2.269   0.672   0.037
  127SOL     OW  379   3.064   2.769   0.844
  127SOL    HW1  380   3.008   2.693   0.879
  127SOL    HW2  381   3.160   2.753   0.867
  128SOL     OW  382   4.323   0.099  -0.539
  128SOL    HW1  383   4.348   0.168  -0.470
  128SOL    HW2  384   4.259   0.033  -0.500
  129SOL     OW  385   5.762   2.417   1.573
  129SOL    HW1  386   5.764   2.477   1.493
  129SOL    HW2  387   5.852   2.418   1.617
  130SOL     OW  388   2.090   1.271   1.640
  130SOL    HW1  389   2.071   1.357   1.688
  130SOL    HW2  390   2.052   1.194   1.693
  131SOL     OW  391   4.213   1.485  -1.159
  131SOL    HW1  392   4.286   1.552  -1.143
  131SOL    HW2  393   4.248   1.393  -1.143
  132SOL     OW  394   4.646   0.727  -0.871
  132SOL    HW1  395   4.556   0.763  -0.845
  132SOL    HW2  396   4.673   0.765  -0.960
  133SOL     OW  397   5.926   0.237   1.622
  133SOL    HW1  398   5.973   0.192   1.698
  133SOL    HW2  399   5.974   0.217   1.537
  134SOL     OW  400   5.678  -0.335   0.463
  134SOL    HW1  401   5.613  -0.399   0.420
  134SOL    HW2  402   5.678  -0.248   0.412
  135SOL     OW  403   4.327   3.485  -0.465
  135SOL    HW1  404   4.308   3.555  -0.395
  135SOL    HW2  405   4.253   3.418  -0.464
  136SOL     OW  406   3.067   3.734  -1.435
  136SOL    HW1  407   3.122   3.812  -1.464
  136SOL    HW2  408   3.115   3.685  -1.362
  137SOL     OW  409   5.751   3.214   0.627
  137SOL    HW1  410   5.851   3.205   0.623
  137SOL    HW2  411   5.720   3.263   0.545
  138SOL     OW  412   3.947   3.997  -0.011
  138SOL    HW1  413   3.880   3.953  -0.072
  138SOL    HW2  414   4.019   4.039  -0.066
  139SOL     OW  415   5.063   0.278   1.631
  139SOL    HW1  416   5.098   0.194   1.674
  139SOL    HW2  417   5.106   0.357   1.674
  140SOL     OW  418   3.167  -0.045  -0.545
  140SOL    HW1  419   3.219   0.012  -0.609
  140SOL    HW2  420   3.103  -0.102  -0.597
  141SOL     OW  421   2.340   1.251  -1.464
  141SOL    HW1  422   2.284   1.308  -1.404
  141SOL    HW2  423   2.291   1.233  -1.549
  142SOL     OW  424   4.794   3.303   0.660
  142SOL    HW1  425   4.771   3.384   0.606
  142SOL    HW2  426   4.758   3.315   0.753
  143SOL     OW  427   3.172   0.608   1.713
  143SOL    HW1  428   3.183   0.527   1.772
  143SOL    HW2  429   3.075   0.621   1.691
  144SOL     OW  430   5.768   2.618   1.347
  144SOL    HW1  431   5.750   2.598   1.251
  144SOL    HW2  432   5.770   2.717   1.361
  145SOL     OW  433   6.325   0.840  -0.479
  145SOL    HW1  434   6.263   0.777  -0.433
  145SOL    HW2  435   6.358   0.908  -0.413
  146SOL     OW  436   4.826  -0.548   0.105
  146SOL    HW1  437   4.748  -0.571   0.163
  146SOL    HW2  438   4.800  -0.553   0.009
  147SOL     OW  439   3.764   3.374   0.634
  147SOL    HW1  440   3.782   3.459   0.586
  147SOL    HW2  441   3.736   3.394   0.729
  148SOL     OW  442   2.380   0.255   0.980
  148SOL    HW1  443   2.337   0.329   1.032
  148SOL    HW2  444   2.393   0.285   0.885
  149SOL     OW  445   5.458   0.324  -0.445
  149SOL    HW1  446   5.371   0.283  -0.415
  149SOL    HW2  447   5.515   0.342  -0.364
  150SOL     OW  448   3.523  -0.383   0.487
  150SOL    HW1  449   3.616  -0.410   0.513
  150SOL    HW2  450   3.462  -0.463   0.493
  151SOL     OW  451   3.619   1.339  -1.439
  151SOL    HW1  452   3.645   1.311  -1.346
  151SOL    HW2  453   3.670   1.284  -1.505
  152SOL     OW  454   6.537   0.662   0.426
  152SOL    HW1  455   6.611   0.723   0.397
  152SOL    HW2  456   6.535   0.581   0.367
  153SOL     OW  457   6.239   2.519   0.846
  153SOL    HW1  458   6.262   2.451   0.915
  153SOL    HW2  459   6.174   2.479   0.781
  154SOL     OW  460   3.133   2.648   1.395
  154SOL    HW1  461   3.059   2.611   1.339
  154SOL    HW2  462   3.102   2.732   1.440
  155SOL     OW  463   6.283   0.686   1.239
  155SOL    HW1  464   6.330   0.729   1.162
  155SOL    HW2  465   6.346   0.679   1.316
  156SOL     OW  466   5.551   2.599   1.711
  156SOL    HW1  467   5.609   2.530   1.667
  156SOL    HW2  468   5.606   2.656   1.771
  157SOL     OW  469   4.352   1.956  -1.664
  157SOL    HW1  470   4.408   2.015  -1.722
  157SOL    HW2  471   4.290   1.902  -1.721
  158SOL     OW  472   5.637   2.944   0.661
  158SOL    HW1  473   5.570   2.945   0.735
  158SOL    HW2  474   5.673   3.036   0.646
  159SOL     OW  475   3.928   0.643  -1.345
  159SOL    HW1  476   3.835   0.646  -1.309
  159SOL    HW2  477   3.988   0.599  -1.279
  160SOL     OW  478   5.344  -0.484   0.236
  160SOL    HW1  479   5.359  -0.582   0.252
  160SOL    HW2  480   5.246  -0.468   0.222
  161SOL     OW  481   6.461   3.798   0.892
  161SOL    HW1  482   6.447   3.874   0.954
  161SOL    HW2  483   6.549   3.809   0.844
  162SOL     OW  484   6.402   0.836   0.989
  162SOL    HW1  485   6.457   0.859   0.908
  162SOL    HW2  486   6.326   0.900   0.996
  163SOL     OW  487   3.852   3.101   0.730
  163SOL    HW1  488   3.829   3.172   0.664
  163SOL    HW2  489   3.858   3.143   0.821
  164SOL     OW  490   5.157   3.005   0.842
  164SOL    HW1  491   5.254   2.998   0.866
  164SOL    HW2  492   5.102   2.965   0.915
  165SOL     OW  493   5.885   3.330  -0.832
  165SOL    HW1  494   5.834   3.254  -0.790
  165SOL    HW2  495   5.893   3.405  -0.766
  166SOL     OW  496   5.978  -0.257   0.442
  166SOL    HW1  497   5.886  -0.293   0.428
  166SOL    HW2  498   6.037  -0.285   0.366
  167SOL     OW  499   4.019   1.422  -1.380
  167SOL    HW1  500   4.010   1.324  -1.361
  167SOL    HW2  501   4.081   1.462  -1.312
  168SOL     OW  502   2.908   3.022   0.821
  168SOL    HW1  503   2.943   2.929   0.828
  168SOL    HW2  504   2.981   3.087   0.846
  169SOL     OW  505   6.884   2.626  -0.319
  169SOL    HW1  506   6.940   2.663  -0.245
  169SOL    HW2  507   6.793   2.602  -0.284
  170SOL     OW  508   3.383   0.392   1.468
  170SOL    HW1  509   3.289   0.360   1.482
  170SOL    HW2  510   3.444   0.345   1.531
  171SOL     OW  511   6.208   2.321  -1.124
  171SOL    HW1  512   6.298   2.279  -1.113
  171SOL    HW2  513   6.204   2.369  -1.211
  172SOL     OW  514   4.598   4.432   0.428
  172SOL    HW1  515   4.509   4.408   0.388
  172SOL    HW2  516   4.670   4.416   0.360
  173SOL     OW  517   4.095   0.507  -1.123
  173SOL    HW1  518   4.169   0.470  -1.179
  173SOL    HW2  519   4.041   0.432  -1.086
  174SOL     OW  520   4.834  -0.595   1.338
  174SOL    HW1  521   4.928  -0.613   1.308
  174SOL    HW2  522   4.825  -0.622   1.434
  175SOL     OW  523   5.040   0.442  -0.465
  175SOL    HW1  524   5.022   0.537  -0.489
  175SOL    HW2  525   5.018   0.383  -0.543
  176SOL     OW  526   2.440   3.315  -0.553
  176SOL    HW1  527   2.417   3.412  -0.548
  176SOL    HW2  528   2.462   3.290  -0.647
  177SOL     OW  529   7.162   2.238  -0.606
  177SOL    HW1  530   7.075   2.187  -0.607
  177SOL    HW2  531   7.207   2.228  -0.695
  178SOL     OW  532   6.184   0.541   1.853
  178SOL    HW1  533   6.181   0.540   1.753
  178SOL    HW2  534   6.222   0.628   1.885
  179SOL     OW  535   4.901   2.903  -0.709
  179SOL    HW1  536   4.960   2.959  -0.766
  179SOL    HW2  537   4.956   2.858  -0.638
  180SOL     OW  538   4.069   3.170  -1.375
  180SOL    HW1  539   4.044   3.118  -1.293
  180SOL    HW2  540   4.039   3.265  -1.365
  181SOL     OW  541   4.956   1.697   1.945
  181SOL    HW1  542   4.874   1.640   1.953
  181SOL    HW2  543   4.932   1.791   1.971
  182SOL     OW  544   3.102   0.272   1.470
  182SOL    HW1  545   3.084   0.184   1.514
  182SOL    HW2  546   3.103   0.260   1.371
  183SOL     OW  547   3.222   2.377  -1.437
  183SOL    HW1  548   3.245   2.399  -1.532
  183SOL    HW2  549   3.222   2.278  -1.425
  184SOL     OW  550   2.718   3.552  -0.195
  184SOL    HW1  551   2.680   3.459  -0.198
  184SOL    HW2  552   2.737   3.583  -0.288
  185SOL     OW  553   5.199   0.249  -0.304
  185SOL    HW1  554   5.141   0.210  -0.232
  185SOL    HW2  555   5.146   0.317  -0.356
  186SOL     OW  556   2.617   3.291  -0.299
  186SOL    HW1  557   2.600   3.315  -0.395
  186SOL    HW2  558   2.680   3.213  -0.295
  187SOL     OW  559   1.986   1.829  -1.106
  187SOL    HW1  560   1.947   1.883  -1.180
  187SOL    HW2  561   2.033   1.749  -1.145
  188SOL     OW  562   4.067   3.353  -0.986
  188SOL    HW1  563   4.086   3.255  -0.991
  188SOL    HW2  564   4.050   3.378  -0.890
  189SOL     OW  565   7.283   2.123  -0.299
  189SOL    HW1  566   7.266   2.050  -0.366
  189SOL    HW2  567   7.380   2.125  -0.275
  190SOL     OW  568   3.843   0.070   0.997
  190SOL    HW1  569   3.865  -0.023   1.028
  190SOL    HW2  570   3.785   0.064   0.915
  191SOL     OW  571   6.390   2.795   0.701
  191SOL    HW1  572   6.450   2.779   0.622
  191SOL    HW2  573   6.387   2.712   0.757
  192SOL     OW  574   6.694   1.086  -0.359
  192SOL    HW1  575   6.685   1.152  -0.433
  192SOL    HW2  576   6.703   1.135  -0.272
  193SOL     OW  577   5.602   3.793   0.009
  193SOL    HW1  578   5.555   3.709  -0.019
  193SOL    HW2  579   5.546   3.872  -0.015
  194SOL     OW  580   2.380   1.169   0.050
  194SOL    HW1  581   2.378   1.083  -0.003
  194SOL    HW2  582   2.288   1.191   0.081
  195SOL     OW  583   2.890   2.538   1.244
  195SOL    HW1  584   2.800   2.542   1.288
  195SOL    HW2  585   2.925   2.444   1.251
  196SOL     OW  586   2.683   1.852   1.490
  196SOL    HW1  587   2.662   1.925   1.424
  196SOL    HW2  588   2.599   1.819   1.531
  197SOL     OW  589   6.432   0.484   1.012
  197SOL    HW1  590   6.462   0.580   1.004
  197SOL    HW2  591   6.507   0.424   0.984
  198SOL     OW  592   4.979   0.696  -0.630
  198SOL    HW1  593   4.945   0.736  -0.715
  198SOL    HW2  594   5.079   0.707  -0.625
  199SOL     OW  595   6.529   1.968  -1.350
  199SOL    HW1  596   6.571   1.957  -1.441
  199SOL    HW2  597   6.430   1.979  -1.360
  200SOL     OW  598   3.718   0.978   1.243
  200SOL    HW1  599   3.747   1.010   1.153
  200SOL    HW2  600   3.746   1.045   1.313
  201SOL     OW  601   4.383   1.583   1.992
  201SOL    HW1  602   4.405   1.589   1.894
  201SOL    HW2  603   4.358   1.673   2.026
  202SOL     OW  604   3.805   0.981   1.858
  202SOL    HW1  605   3.849   0.950   1.773
  202SOL    HW2  606   3.874   0.987   1.930
  204SOL     OW  610   3.743   3.018  -1.303
  204SOL    HW1  611   3.676   3.048  -1.235
  204SOL    HW2  612   3.834   3.015  -1.261
  205SOL     OW  613   2.405   2.813  -1.144
  205SOL    HW1  614   2.503   2.803  -1.123
  205SOL    HW2  615   2.389   2.787  -1.239
  206SOL     OW  616   3.151   1.070   1.773
  206SOL    HW1  617   3.198   1.149   1.734
  206SOL    HW2  618   3.117   1.094   1.865
  207SOL     OW  619   2.323   0.603   1.397
  207SOL    HW1  620   2.300   0.540   1.322
  207SOL    HW2  621   2.335   0.695   1.360
  208SOL     OW  622   2.376   0.780   0.678
  208SOL    HW1  623   2.427   0.815   0.757
  208SOL    HW2  624   2.379   0.680   0.678
  209SOL     OW  625   2.968   0.941   1.578
  209SOL    HW1  626   3.040   0.970   1.642
  209SOL    HW2  627   2.947   0.844   1.594
  210SOL     OW  628   4.341   1.891   1.998
  210SOL    HW1  629   4.291   1.943   1.928
  210SOL    HW2  630   4.318   1.926   2.088
  211SOL     OW  631   4.301   2.522   1.626
  211SOL    HW1  632   4.293   2.425   1.653
  211SOL    HW2  633   4.229   2.544   1.561
  212SOL     OW  634   3.424   1.980   1.823
  212SOL    HW1  635   3.459   1.985   1.730
  212SOL    HW2  636   3.443   2.066   1.871
  213SOL     OW  637   5.427   3.228   0.624
  213SOL    HW1  638   5.466   3.250   0.534
  213SOL    HW2  639   5.354   3.293   0.645
  214SOL     OW  640   6.625   1.915   0.747
  214SOL    HW1  641   6.680   1.860   0.684
  214SOL    HW2  642   6.676   1.998   0.771
  215SOL     OW  643   6.919   2.120   0.663
  215SOL    HW1  644   6.980   2.180   0.611
  215SOL    HW2  645   6.974   2.054   0.715
  216SOL     OW  646   7.075   2.304   0.468
  216SOL    HW1  647   7.145   2.335   0.404
  216SOL    HW2  648   6.987   2.348   0.445
  217SOL     OW  649   6.138   1.893   1.244
  217SOL    HW1  650   6.082   1.945   1.309
  217SOL    HW2  651   6.105   1.909   1.151
  218SOL     OW  652   6.134   2.513  -0.901
  218SOL    HW1  653   6.224   2.545  -0.871
  218SOL    HW2  654   6.146   2.445  -0.974
  219SOL     OW  655   5.545   2.039  -1.076
  219SOL    HW1  656   5.621   2.059  -1.139
  219SOL    HW2  657   5.573   2.062  -0.983
  220SOL     OW  658   5.433   1.583  -1.191
  220SOL    HW1  659   5.406   1.557  -1.098
  220SOL    HW2  660   5.481   1.670  -1.188
  221SOL     OW  661   5.337   1.343  -1.353
  221SOL    HW1  662   5.274   1.376  -1.424
  221SOL    HW2  663   5.380   1.422  -1.308
  222SOL     OW  664   5.176   1.110  -1.252
  222SOL    HW1  665   5.236   1.183  -1.286
  222SOL    HW2  666   5.081   1.130  -1.279
  223SOL     OW  667   4.958  -0.062  -0.097
  223SOL    HW1  668   4.970   0.035  -0.076
  223SOL    HW2  669   4.907  -0.106  -0.024
    8.3797    8.3797    8.3797
