; ITP file created by ByteFF-joint-25, 2025-07-14 11:37:58.198108

[ atomtypes ]
;name           bonded.type        at.num        mass        charge   ptype           sigma         epsilon
 c0bf                                   6      0.0000       0.00000       A     3.39772e-01     4.51054e-01    ;  uncertainty sigma = 0.000008, epsilon = 0.000483
 h1bf                                   1      0.0000       0.00000       A     2.60030e-01     8.67107e-02    ;  uncertainty sigma = 0.000011, epsilon = 0.000525
 h2bf                                   1      0.0000       0.00000       A     2.60030e-01     8.67107e-02    ;  uncertainty sigma = 0.000011, epsilon = 0.000525
 h3bf                                   1      0.0000       0.00000       A     2.60030e-01     8.67107e-02    ;  uncertainty sigma = 0.000011, epsilon = 0.000525
 c4bf                                   6      0.0000       0.00000       A     3.31513e-01     4.12852e-01    ;  uncertainty sigma = 0.000004, epsilon = 0.000655
 o5bf                                   8      0.0000       0.00000       A     3.04828e-01     6.12615e-01    ;  uncertainty sigma = 0.000014, epsilon = 0.001002
 n6bf                                   7      0.0000       0.00000       A     3.27045e-01     4.90541e-01    ;  uncertainty sigma = 0.000023, epsilon = 0.001594
 h7bf                                   1      0.0000       0.00000       A     1.10668e-01     4.09050e-02    ;  uncertainty sigma = 0.000072, epsilon = 0.001112
 c8bf                                   6      0.0000       0.00000       A     3.39790e-01     4.50829e-01    ;  uncertainty sigma = 0.000023, epsilon = 0.001471
 h9bf                                   1      0.0000       0.00000       A     2.42336e-01     8.69402e-02    ;  uncertainty sigma = 0.000054, epsilon = 0.000820
 c10bf                                  6      0.0000       0.00000       A     3.39747e-01     4.52098e-01    ;  uncertainty sigma = 0.000049, epsilon = 0.001873
 h11bf                                  1      0.0000       0.00000       A     2.42270e-01     8.70607e-02    ;  uncertainty sigma = 0.000129, epsilon = 0.000760
 c12bf                                  6      0.0000       0.00000       A     3.39801e-01     4.50535e-01    ;  uncertainty sigma = 0.000006, epsilon = 0.001188
 h13bf                                  1      0.0000       0.00000       A     2.60052e-01     8.66550e-02    ;  uncertainty sigma = 0.000011, epsilon = 0.000507
 h14bf                                  1      0.0000       0.00000       A     2.60052e-01     8.66550e-02    ;  uncertainty sigma = 0.000011, epsilon = 0.000507
 c15bf                                  6      0.0000       0.00000       A     3.39738e-01     4.51549e-01    ;  uncertainty sigma = 0.000027, epsilon = 0.001260
 h16bf                                  1      0.0000       0.00000       A     1.88629e-01     8.69379e-02    ;  uncertainty sigma = 0.000079, epsilon = 0.001173
 h17bf                                  1      0.0000       0.00000       A     1.88629e-01     8.69379e-02    ;  uncertainty sigma = 0.000079, epsilon = 0.001173
 c18bf                                  6      0.0000       0.00000       A     3.31522e-01     4.13086e-01    ;  uncertainty sigma = 0.000004, epsilon = 0.000785
 o19bf                                  8      0.0000       0.00000       A     3.24272e-01     3.89966e-01    ;  uncertainty sigma = 0.000033, epsilon = 0.002858
 h20bf                                  1      0.0000       0.00000       A     5.38199e-02     1.93874e-02    ;  uncertainty sigma = 0.000141, epsilon = 0.001221
 n21bf                                  7      0.0000       0.00000       A     2.67990e-01     7.08627e+00    ;  uncertainty sigma = 0.000124, epsilon = 0.019223
 h22bf                                  1      0.0000       0.00000       A     1.10767e-01     4.17022e-02    ;  uncertainty sigma = 0.000099, epsilon = 0.001196
 c23bf                                  6      0.0000       0.00000       A     3.31510e-01     4.13312e-01    ;  uncertainty sigma = 0.000005, epsilon = 0.000640
 h24bf                                  1      0.0000       0.00000       A     2.62568e-01     6.71735e-02    ;  uncertainty sigma = 0.000008, epsilon = 0.000444
 h25bf                                  1      0.0000       0.00000       A     1.10767e-01     4.17022e-02    ;  uncertainty sigma = 0.000099, epsilon = 0.001196
 c26bf                                  6      0.0000       0.00000       A     3.39760e-01     4.49815e-01    ;  uncertainty sigma = 0.000033, epsilon = 0.004242
 c27bf                                  6      0.0000       0.00000       A     3.31513e-01     4.13329e-01    ;  uncertainty sigma = 0.000007, epsilon = 0.000328
 f28bf                                  9      0.0000       0.00000       A     3.03430e-01     3.47919e-01    ;  uncertainty sigma = 0.000008, epsilon = 0.000740
 c29bf                                  6      0.0000       0.00000       A     3.39752e-01     4.51137e-01    ;  uncertainty sigma = 0.000018, epsilon = 0.000657
 h30bf                                  1      0.0000       0.00000       A     2.60046e-01     8.67815e-02    ;  uncertainty sigma = 0.000019, epsilon = 0.001029
 h31bf                                  1      0.0000       0.00000       A     2.60046e-01     8.67815e-02    ;  uncertainty sigma = 0.000019, epsilon = 0.001029
 c32bf                                  6      0.0000       0.00000       A     3.31415e-01     4.13831e-01    ;  uncertainty sigma = 0.000096, epsilon = 0.001372
 c33bf                                  6      0.0000       0.00000       A     3.31523e-01     4.13619e-01    ;  uncertainty sigma = 0.000007, epsilon = 0.000754
 h34bf                                  1      0.0000       0.00000       A     2.62567e-01     6.73685e-02    ;  uncertainty sigma = 0.000010, epsilon = 0.000382
 c35bf                                  6      0.0000       0.00000       A     3.39774e-01     4.50569e-01    ;  uncertainty sigma = 0.000005, epsilon = 0.000726
 c36bf                                  6      0.0000       0.00000       A     3.31535e-01     4.13044e-01    ;  uncertainty sigma = 0.000019, epsilon = 0.000995
 c37bf                                  6      0.0000       0.00000       A     3.31513e-01     4.13329e-01    ;  uncertainty sigma = 0.000007, epsilon = 0.000328
 f38bf                                  9      0.0000       0.00000       A     3.03430e-01     3.47919e-01    ;  uncertainty sigma = 0.000008, epsilon = 0.000740
 h39bf                                  1      0.0000       0.00000       A     2.60035e-01     8.68913e-02    ;  uncertainty sigma = 0.000009, epsilon = 0.000671
 h40bf                                  1      0.0000       0.00000       A     2.60035e-01     8.68913e-02    ;  uncertainty sigma = 0.000009, epsilon = 0.000671
 h41bf                                  1      0.0000       0.00000       A     2.62549e-01     6.72176e-02    ;  uncertainty sigma = 0.000016, epsilon = 0.000461
 c42bf                                  6      0.0000       0.00000       A     3.39778e-01     4.50840e-01    ;  uncertainty sigma = 0.000007, epsilon = 0.000468
 h43bf                                  1      0.0000       0.00000       A     2.60038e-01     8.68000e-02    ;  uncertainty sigma = 0.000010, epsilon = 0.000496
 h44bf                                  1      0.0000       0.00000       A     2.60038e-01     8.68000e-02    ;  uncertainty sigma = 0.000010, epsilon = 0.000496
 c45bf                                  6      0.0000       0.00000       A     3.31527e-01     4.13354e-01    ;  uncertainty sigma = 0.000008, epsilon = 0.000646
 c46bf                                  6      0.0000       0.00000       A     3.31510e-01     4.13312e-01    ;  uncertainty sigma = 0.000005, epsilon = 0.000639
 h47bf                                  1      0.0000       0.00000       A     2.62568e-01     6.71735e-02    ;  uncertainty sigma = 0.000008, epsilon = 0.000444
 c48bf                                  6      0.0000       0.00000       A     3.39774e-01     4.50569e-01    ;  uncertainty sigma = 0.000005, epsilon = 0.000726
 h49bf                                  1      0.0000       0.00000       A     2.60035e-01     8.68912e-02    ;  uncertainty sigma = 0.000009, epsilon = 0.000671
 h50bf                                  1      0.0000       0.00000       A     2.60035e-01     8.68912e-02    ;  uncertainty sigma = 0.000009, epsilon = 0.000671
 c51bf                                  6      0.0000       0.00000       A     3.31513e-01     4.13311e-01    ;  uncertainty sigma = 0.000004, epsilon = 0.000533
 h52bf                                  1      0.0000       0.00000       A     2.62560e-01     6.70553e-02    ;  uncertainty sigma = 0.000007, epsilon = 0.000412
 c53bf                                  6      0.0000       0.00000       A     3.39752e-01     4.51137e-01    ;  uncertainty sigma = 0.000018, epsilon = 0.000657
 h54bf                                  1      0.0000       0.00000       A     2.60046e-01     8.67814e-02    ;  uncertainty sigma = 0.000019, epsilon = 0.001029
 h55bf                                  1      0.0000       0.00000       A     2.60046e-01     8.67814e-02    ;  uncertainty sigma = 0.000019, epsilon = 0.001029
 c56bf                                  6      0.0000       0.00000       A     3.31521e-01     4.13320e-01    ;  uncertainty sigma = 0.000003, epsilon = 0.000654
 h57bf                                  1      0.0000       0.00000       A     2.62564e-01     6.70137e-02    ;  uncertainty sigma = 0.000010, epsilon = 0.000418
 c58bf                                  6      0.0000       0.00000       A     3.31534e-01     4.13069e-01    ;  uncertainty sigma = 0.000004, epsilon = 0.000817
 h59bf                                  1      0.0000       0.00000       A     2.62553e-01     6.70822e-02    ;  uncertainty sigma = 0.000011, epsilon = 0.000402
 c60bf                                  6      0.0000       0.00000       A     3.39780e-01     4.50695e-01    ;  uncertainty sigma = 0.000006, epsilon = 0.001109
 c61bf                                  6      0.0000       0.00000       A     3.39771e-01     4.50840e-01    ;  uncertainty sigma = 0.000005, epsilon = 0.000428
 c62bf                                  6      0.0000       0.00000       A     3.39770e-01     4.50742e-01    ;  uncertainty sigma = 0.000012, epsilon = 0.000481
 c63bf                                  6      0.0000       0.00000       A     3.39770e-01     4.50742e-01    ;  uncertainty sigma = 0.000012, epsilon = 0.000481
 c64bf                                  6      0.0000       0.00000       A     3.39771e-01     4.50840e-01    ;  uncertainty sigma = 0.000005, epsilon = 0.000428
 h65bf                                  1      0.0000       0.00000       A     2.60000e-01     8.67505e-02    ;  uncertainty sigma = 0.000040, epsilon = 0.000918
 h66bf                                  1      0.0000       0.00000       A     2.60029e-01     8.66729e-02    ;  uncertainty sigma = 0.000006, epsilon = 0.000651
 h67bf                                  1      0.0000       0.00000       A     2.60029e-01     8.66729e-02    ;  uncertainty sigma = 0.000006, epsilon = 0.000651
 h68bf                                  1      0.0000       0.00000       A     2.60030e-01     8.68015e-02    ;  uncertainty sigma = 0.000010, epsilon = 0.000639
 h69bf                                  1      0.0000       0.00000       A     2.60030e-01     8.68015e-02    ;  uncertainty sigma = 0.000010, epsilon = 0.000639
 h70bf                                  1      0.0000       0.00000       A     2.60030e-01     8.68015e-02    ;  uncertainty sigma = 0.000010, epsilon = 0.000639
 h71bf                                  1      0.0000       0.00000       A     2.60030e-01     8.68015e-02    ;  uncertainty sigma = 0.000010, epsilon = 0.000639
 h72bf                                  1      0.0000       0.00000       A     2.60029e-01     8.66729e-02    ;  uncertainty sigma = 0.000006, epsilon = 0.000650
 h73bf                                  1      0.0000       0.00000       A     2.60029e-01     8.66728e-02    ;  uncertainty sigma = 0.000006, epsilon = 0.000651

[ moleculetype ]
;name             nrexcl
 MOL                   3

[ atoms ]
;       nr            type      resi   res      atom      cgnr      charge          mass ; qtot
         1            c0bf         1   UNL        c0         1    -0.17390       12.0110 ; qtot   -0.174
         2            h1bf         1   UNL        h1         2     0.06220        1.0080 ; qtot   -0.112
         3            h2bf         1   UNL        h2         3     0.06220        1.0080 ; qtot   -0.049
         4            h3bf         1   UNL        h3         4     0.06220        1.0080 ; qtot    0.013
         5            c4bf         1   UNL        c4         5     0.66558       12.0110 ; qtot    0.678
         6            o5bf         1   UNL        o5         6    -0.60952       15.9990 ; qtot    0.069
         7            n6bf         1   UNL        n6         7    -0.57993       14.0070 ; qtot   -0.511
         8            h7bf         1   UNL        h7         8     0.32334        1.0080 ; qtot   -0.188
         9            c8bf         1   UNL        c8         9     0.09994       12.0110 ; qtot   -0.088
        10            h9bf         1   UNL        h9        10     0.08379        1.0080 ; qtot   -0.004
        11           c10bf         1   UNL       c10        11     0.13138       12.0110 ; qtot    0.127
        12           h11bf         1   UNL       h11        12     0.07988        1.0080 ; qtot    0.207
        13           c12bf         1   UNL       c12        13    -0.04881       12.0110 ; qtot    0.158
        14           h13bf         1   UNL       h13        14     0.06994        1.0080 ; qtot    0.228
        15           h14bf         1   UNL       h14        15     0.06994        1.0080 ; qtot    0.298
        16           c15bf         1   UNL       c15        16     0.13771       12.0110 ; qtot    0.436
        17           h16bf         1   UNL       h16        17     0.11216        1.0080 ; qtot    0.548
        18           h17bf         1   UNL       h17        18     0.11216        1.0080 ; qtot    0.660
        19           c18bf         1   UNL       c18        19    -0.03209       12.0110 ; qtot    0.628
        20           o19bf         1   UNL       o19        20    -0.63288       15.9990 ; qtot   -0.005
        21           h20bf         1   UNL       h20        21     0.46298        1.0080 ; qtot    0.458
        22           n21bf         1   UNL       n21        22    -0.79069       14.0070 ; qtot   -0.332
        23           h22bf         1   UNL       h22        23     0.46101        1.0080 ; qtot    0.129
        24           c23bf         1   UNL       c23        24    -0.17594       12.0110 ; qtot   -0.047
        25           h24bf         1   UNL       h24        25     0.15771        1.0080 ; qtot    0.110
        26           h25bf         1   UNL       h25        26     0.46101        1.0080 ; qtot    0.571
        27           c26bf         1   UNL       c26        27     0.26222       12.0110 ; qtot    0.834
        28           c27bf         1   UNL       c27        28     0.15605       12.0110 ; qtot    0.990
        29           f28bf         1   UNL       f28        29    -0.13988       18.9980 ; qtot    0.850
        30           c29bf         1   UNL       c29        30    -0.09950       12.0110 ; qtot    0.750
        31           h30bf         1   UNL       h30        31     0.07240        1.0080 ; qtot    0.823
        32           h31bf         1   UNL       h31        32     0.07240        1.0080 ; qtot    0.895
        33           c32bf         1   UNL       c32        33    -0.16161       12.0110 ; qtot    0.733
        34           c33bf         1   UNL       c33        34    -0.20667       12.0110 ; qtot    0.527
        35           h34bf         1   UNL       h34        35     0.17106        1.0080 ; qtot    0.698
        36           c35bf         1   UNL       c35        36    -0.07656       12.0110 ; qtot    0.621
        37           c36bf         1   UNL       c36        37    -0.10036       12.0110 ; qtot    0.521
        38           c37bf         1   UNL       c37        38     0.15605       12.0110 ; qtot    0.677
        39           f38bf         1   UNL       f38        39    -0.13988       18.9980 ; qtot    0.537
        40           h39bf         1   UNL       h39        40     0.06136        1.0080 ; qtot    0.598
        41           h40bf         1   UNL       h40        41     0.06136        1.0080 ; qtot    0.660
        42           h41bf         1   UNL       h41        42     0.13992        1.0080 ; qtot    0.800
        43           c42bf         1   UNL       c42        43    -0.08801       12.0110 ; qtot    0.712
        44           h43bf         1   UNL       h43        44     0.05454        1.0080 ; qtot    0.766
        45           h44bf         1   UNL       h44        45     0.05454        1.0080 ; qtot    0.821
        46           c45bf         1   UNL       c45        46    -0.04862       12.0110 ; qtot    0.772
        47           c46bf         1   UNL       c46        47    -0.17594       12.0110 ; qtot    0.596
        48           h47bf         1   UNL       h47        48     0.15771        1.0080 ; qtot    0.754
        49           c48bf         1   UNL       c48        49    -0.07656       12.0110 ; qtot    0.677
        50           h49bf         1   UNL       h49        50     0.06136        1.0080 ; qtot    0.739
        51           h50bf         1   UNL       h50        51     0.06136        1.0080 ; qtot    0.800
        52           c51bf         1   UNL       c51        52    -0.10891       12.0110 ; qtot    0.691
        53           h52bf         1   UNL       h52        53     0.13291        1.0080 ; qtot    0.824
        54           c53bf         1   UNL       c53        54    -0.09950       12.0110 ; qtot    0.725
        55           h54bf         1   UNL       h54        55     0.07240        1.0080 ; qtot    0.797
        56           h55bf         1   UNL       h55        56     0.07240        1.0080 ; qtot    0.869
        57           c56bf         1   UNL       c56        57    -0.10355       12.0110 ; qtot    0.766
        58           h57bf         1   UNL       h57        58     0.14479        1.0080 ; qtot    0.911
        59           c58bf         1   UNL       c58        59    -0.11066       12.0110 ; qtot    0.800
        60           h59bf         1   UNL       h59        60     0.14088        1.0080 ; qtot    0.941
        61           c60bf         1   UNL       c60        61    -0.02910       12.0110 ; qtot    0.912
        62           c61bf         1   UNL       c61        62    -0.07649       12.0110 ; qtot    0.835
        63           c62bf         1   UNL       c62        63    -0.08061       12.0110 ; qtot    0.755
        64           c63bf         1   UNL       c63        64    -0.08061       12.0110 ; qtot    0.674
        65           c64bf         1   UNL       c64        65    -0.07649       12.0110 ; qtot    0.598
        66           h65bf         1   UNL       h65        66     0.05113        1.0080 ; qtot    0.649
        67           h66bf         1   UNL       h66        67     0.04524        1.0080 ; qtot    0.694
        68           h67bf         1   UNL       h67        68     0.04524        1.0080 ; qtot    0.739
        69           h68bf         1   UNL       h68        69     0.04258        1.0080 ; qtot    0.782
        70           h69bf         1   UNL       h69        70     0.04258        1.0080 ; qtot    0.824
        71           h70bf         1   UNL       h70        71     0.04258        1.0080 ; qtot    0.867
        72           h71bf         1   UNL       h71        72     0.04258        1.0080 ; qtot    0.909
        73           h72bf         1   UNL       h72        73     0.04524        1.0080 ; qtot    0.955
        74           h73bf         1   UNL       h73        74     0.04526        1.0080 ; qtot    1.000

[ bonds ]
;       ai        aj funct               r               k
         1         2     1        0.109474   320790.834766    ;  uncertainty r = 0.000014, k = 2.210414
         1         3     1        0.109474   320790.834766    ;  uncertainty r = 0.000014, k = 2.210414
         1         4     1        0.109474   320790.834766    ;  uncertainty r = 0.000014, k = 2.210414
         1         5     1        0.152711   231291.489355    ;  uncertainty r = 0.000074, k = 7.077691
         5         6     1        0.123818   755192.387500    ;  uncertainty r = 0.000160, k = 11.110564
         5         7     1        0.137333   359141.597363    ;  uncertainty r = 0.000068, k = 22.289233
         7         8     1        0.101564   425616.097607    ;  uncertainty r = 0.000034, k = 2.445565
         7         9     1        0.145300   250659.343848    ;  uncertainty r = 0.000113, k = 16.035835
         9        10     1        0.109480   308779.225537    ;  uncertainty r = 0.000054, k = 1.565093
         9        11     1        0.152383   188750.265869    ;  uncertainty r = 0.000545, k = 10.926084
         9        13     1        0.153294   189941.265576    ;  uncertainty r = 0.000146, k = 3.560964
        11        12     1        0.109667   308472.933447    ;  uncertainty r = 0.000048, k = 5.020703
        11        16     1        0.152505   198805.477148    ;  uncertainty r = 0.000265, k = 14.080397
        11        20     1        0.142287   266443.729004    ;  uncertainty r = 0.000176, k = 20.737548
        13        14     1        0.109564   310340.232422    ;  uncertainty r = 0.000030, k = 3.251836
        13        15     1        0.109564   310340.232422    ;  uncertainty r = 0.000030, k = 3.251836
        13        19     1        0.150998   225384.883643    ;  uncertainty r = 0.000046, k = 1.857052
        16        17     1        0.109007   316542.838770    ;  uncertainty r = 0.000050, k = 3.243054
        16        18     1        0.109007   316542.838770    ;  uncertainty r = 0.000050, k = 3.243054
        16        22     1        0.150039   211986.571069    ;  uncertainty r = 0.000199, k = 39.388881
        19        24     1        0.139878   357503.059814    ;  uncertainty r = 0.000043, k = 2.283058
        19        47     1        0.139878   357503.034277    ;  uncertainty r = 0.000043, k = 2.283034
        20        21     1        0.096881   465425.156836    ;  uncertainty r = 0.000065, k = 1.510014
        22        23     1        0.103045   376286.804004    ;  uncertainty r = 0.000130, k = 5.789097
        22        26     1        0.103045   376286.804004    ;  uncertainty r = 0.000130, k = 5.789097
        22        27     1        0.156848   158717.373926    ;  uncertainty r = 0.000526, k = 90.783576
        24        25     1        0.108819   336813.787598    ;  uncertainty r = 0.000022, k = 1.111393
        24        28     1        0.138973   358518.262061    ;  uncertainty r = 0.000027, k = 2.522678
        27        30     1        0.154191   196186.863647    ;  uncertainty r = 0.000173, k = 7.607837
        27        33     1        0.152178   218222.950244    ;  uncertainty r = 0.000150, k = 24.500939
        27        54     1        0.154191   196186.863647    ;  uncertainty r = 0.000173, k = 7.607811
        28        29     1        0.135440   340257.875391    ;  uncertainty r = 0.000027, k = 1.328140
        28        34     1        0.139034   367053.708887    ;  uncertainty r = 0.000010, k = 2.576016
        30        31     1        0.109621   308946.187158    ;  uncertainty r = 0.000016, k = 1.707426
        30        32     1        0.109621   308946.187158    ;  uncertainty r = 0.000016, k = 1.707426
        30        36     1        0.153567   211163.267432    ;  uncertainty r = 0.000073, k = 3.808334
        33        37     1        0.140045   339474.243652    ;  uncertainty r = 0.000065, k = 8.114450
        33        59     1        0.140024   347605.770020    ;  uncertainty r = 0.000076, k = 6.983488
        34        35     1        0.108764   339427.817187    ;  uncertainty r = 0.000016, k = 1.050232
        34        38     1        0.139034   367053.708887    ;  uncertainty r = 0.000010, k = 2.576011
        36        40     1        0.109589   307310.688525    ;  uncertainty r = 0.000018, k = 2.510590
        36        41     1        0.109589   307310.688525    ;  uncertainty r = 0.000018, k = 2.510590
        36        43     1        0.153381   215649.882178    ;  uncertainty r = 0.000053, k = 4.058027
        37        42     1        0.108900   333611.025488    ;  uncertainty r = 0.000023, k = 2.387913
        37        46     1        0.139750   347497.262842    ;  uncertainty r = 0.000095, k = 6.125391
        38        39     1        0.135440   340257.875391    ;  uncertainty r = 0.000027, k = 1.328147
        38        47     1        0.138973   358518.262061    ;  uncertainty r = 0.000027, k = 2.522681
        43        44     1        0.109671   307274.604590    ;  uncertainty r = 0.000042, k = 1.783240
        43        45     1        0.109671   307274.604590    ;  uncertainty r = 0.000042, k = 1.783240
        43        49     1        0.153381   215649.907715    ;  uncertainty r = 0.000053, k = 4.058027
        46        52     1        0.139878   352927.192871    ;  uncertainty r = 0.000015, k = 2.898910
        46        61     1        0.151214   216199.593994    ;  uncertainty r = 0.000047, k = 12.487918
        47        48     1        0.108819   336813.813135    ;  uncertainty r = 0.000022, k = 1.111386
        49        50     1        0.109589   307310.662988    ;  uncertainty r = 0.000018, k = 2.510617
        49        51     1        0.109589   307310.662988    ;  uncertainty r = 0.000018, k = 2.510617
        49        54     1        0.153567   211163.292969    ;  uncertainty r = 0.000073, k = 3.808310
        52        53     1        0.108885   334816.377051    ;  uncertainty r = 0.000021, k = 0.683085
        52        57     1        0.139432   373330.015332    ;  uncertainty r = 0.000034, k = 3.303920
        54        55     1        0.109621   308946.161621    ;  uncertainty r = 0.000016, k = 1.707394
        54        56     1        0.109621   308946.161621    ;  uncertainty r = 0.000016, k = 1.707394
        57        58     1        0.108775   332977.628564    ;  uncertainty r = 0.000009, k = 0.964276
        57        59     1        0.139575   367796.762158    ;  uncertainty r = 0.000051, k = 1.659605
        59        60     1        0.108813   334162.831348    ;  uncertainty r = 0.000023, k = 2.423836
        61        62     1        0.154929   212110.247290    ;  uncertainty r = 0.000083, k = 3.752448
        61        65     1        0.154929   212110.247290    ;  uncertainty r = 0.000083, k = 3.752448
        61        66     1        0.109645   302491.452930    ;  uncertainty r = 0.000036, k = 1.438823
        62        63     1        0.154727   235589.972217    ;  uncertainty r = 0.000035, k = 5.265430
        62        67     1        0.109495   305960.081885    ;  uncertainty r = 0.000016, k = 2.159009
        62        68     1        0.109495   305960.081885    ;  uncertainty r = 0.000016, k = 2.159009
        63        64     1        0.155149   229379.704736    ;  uncertainty r = 0.000046, k = 6.279083
        63        69     1        0.109504   305035.612988    ;  uncertainty r = 0.000007, k = 1.650439
        63        70     1        0.109504   305035.612988    ;  uncertainty r = 0.000007, k = 1.650439
        64        65     1        0.154727   235589.972217    ;  uncertainty r = 0.000035, k = 5.265430
        64        71     1        0.109504   305035.612988    ;  uncertainty r = 0.000007, k = 1.650439
        64        72     1        0.109504   305035.612988    ;  uncertainty r = 0.000007, k = 1.650439
        65        73     1        0.109495   305960.081885    ;  uncertainty r = 0.000016, k = 2.159009
        65        74     1        0.109495   305960.081885    ;  uncertainty r = 0.000016, k = 2.159011

[ angles ]
;       ai        aj        ak funct           theta             cth
         1         5         6     1      124.114609      550.306959    ;  uncertainty theta = 0.002623, k = 0.032329
         1         5         7     1      115.216919      550.905293    ;  uncertainty theta = 0.002696, k = 0.069666
         2         1         3     1      106.853615      313.202304    ;  uncertainty theta = 0.000833, k = 0.016143
         2         1         4     1      106.853615      313.202304    ;  uncertainty theta = 0.000833, k = 0.016143
         2         1         5     1      108.518921      366.857878    ;  uncertainty theta = 0.000489, k = 0.046005
         3         1         4     1      106.853615      313.202304    ;  uncertainty theta = 0.000833, k = 0.016143
         3         1         5     1      108.518921      366.857878    ;  uncertainty theta = 0.000489, k = 0.046005
         4         1         5     1      108.518921      366.857878    ;  uncertainty theta = 0.000489, k = 0.046005
         5         7         8     1      114.594887      334.719170    ;  uncertainty theta = 0.004973, k = 0.111293
         5         7         9     1      115.815430      437.769802    ;  uncertainty theta = 0.005380, k = 0.200643
         6         5         7     1      124.171410      718.367761    ;  uncertainty theta = 0.003813, k = 0.041626
         7         9        10     1      106.034767      440.628011    ;  uncertainty theta = 0.004673, k = 0.107398
         7         9        11     1      109.053207      570.016308    ;  uncertainty theta = 0.005091, k = 0.174962
         7         9        13     1      110.669174      625.361289    ;  uncertainty theta = 0.002458, k = 0.075124
         8         7         9     1      111.405823      315.356998    ;  uncertainty theta = 0.004839, k = 0.060537
         9        11        12     1      107.993507      385.094247    ;  uncertainty theta = 0.001015, k = 0.063045
         9        11        16     1      109.543381      505.432831    ;  uncertainty theta = 0.005078, k = 0.100834
         9        11        20     1      110.917030      684.451607    ;  uncertainty theta = 0.005397, k = 0.185579
         9        13        14     1      106.283981      387.161539    ;  uncertainty theta = 0.001882, k = 0.049333
         9        13        15     1      106.283981      387.161539    ;  uncertainty theta = 0.001882, k = 0.049333
         9        13        19     1      110.952209      515.080942    ;  uncertainty theta = 0.002306, k = 0.112637
        10         9        11     1      107.043015      383.331069    ;  uncertainty theta = 0.004317, k = 0.113928
        10         9        13     1      108.445236      397.362370    ;  uncertainty theta = 0.003124, k = 0.053667
        11         9        13     1      108.613907      506.308626    ;  uncertainty theta = 0.002977, k = 0.141600
        11        16        17     1      110.138550      383.066824    ;  uncertainty theta = 0.004026, k = 0.067197
        11        16        18     1      110.138550      383.066824    ;  uncertainty theta = 0.004026, k = 0.067197
        11        16        22     1      109.382980      656.485152    ;  uncertainty theta = 0.005351, k = 0.150202
        11        20        21     1      108.698219      427.689730    ;  uncertainty theta = 0.005202, k = 0.196685
        12        11        16     1      108.843399      390.093359    ;  uncertainty theta = 0.004048, k = 0.084273
        12        11        20     1      108.883446      475.467778    ;  uncertainty theta = 0.004926, k = 0.162312
        13        19        24     1      120.624069      416.815742    ;  uncertainty theta = 0.001219, k = 0.079657
        13        19        47     1      120.624069      416.815742    ;  uncertainty theta = 0.001219, k = 0.079657
        14        13        15     1      105.130737      320.868002    ;  uncertainty theta = 0.002316, k = 0.034430
        14        13        19     1      107.571251      395.723462    ;  uncertainty theta = 0.001665, k = 0.074273
        15        13        19     1      107.571251      395.723462    ;  uncertainty theta = 0.001665, k = 0.074273
        16        11        20     1      106.913956      686.762013    ;  uncertainty theta = 0.004279, k = 0.304534
        16        22        23     1      108.501389      438.877187    ;  uncertainty theta = 0.005279, k = 0.145924
        16        22        26     1      108.501389      438.877187    ;  uncertainty theta = 0.005279, k = 0.145924
        16        22        27     1      113.271378      540.835181    ;  uncertainty theta = 0.005763, k = 0.203119
        17        16        18     1      108.693039      321.952307    ;  uncertainty theta = 0.001865, k = 0.059911
        17        16        22     1      106.102272      457.256659    ;  uncertainty theta = 0.003939, k = 0.078283
        18        16        22     1      106.102272      457.256659    ;  uncertainty theta = 0.003939, k = 0.078283
        19        24        25     1      120.673325      264.594874    ;  uncertainty theta = 0.002389, k = 0.061243
        19        24        28     1      118.734276      495.363421    ;  uncertainty theta = 0.000711, k = 0.136380
        19        47        38     1      118.734276      495.363421    ;  uncertainty theta = 0.000711, k = 0.136380
        19        47        48     1      120.673325      264.594874    ;  uncertainty theta = 0.002389, k = 0.061243
        22        27        30     1      106.926712      669.476646    ;  uncertainty theta = 0.002146, k = 0.204556
        22        27        33     1      107.397682      654.665122    ;  uncertainty theta = 0.003202, k = 0.167296
        22        27        54     1      106.926712      669.476582    ;  uncertainty theta = 0.002146, k = 0.204556
        23        22        26     1      107.166519      378.329562    ;  uncertainty theta = 0.006936, k = 0.197971
        23        22        27     1      109.037033      406.765740    ;  uncertainty theta = 0.005276, k = 0.153438
        24        19        47     1      120.936752      456.890042    ;  uncertainty theta = 0.001717, k = 0.065710
        24        28        29     1      119.004471      504.013159    ;  uncertainty theta = 0.001605, k = 0.057410
        24        28        34     1      123.554550      364.762558    ;  uncertainty theta = 0.003888, k = 0.175926
        25        24        28     1      120.595474      288.744329    ;  uncertainty theta = 0.002236, k = 0.050484
        26        22        27     1      109.037033      406.765740    ;  uncertainty theta = 0.005276, k = 0.153438
        27        30        31     1      106.798874      375.320269    ;  uncertainty theta = 0.002752, k = 0.112844
        27        30        32     1      106.798874      375.320269    ;  uncertainty theta = 0.002752, k = 0.112844
        27        30        36     1      110.217361      539.008320    ;  uncertainty theta = 0.002624, k = 0.117635
        27        33        37     1      118.076065      364.938668    ;  uncertainty theta = 0.007706, k = 0.165881
        27        33        59     1      118.545532      377.190607    ;  uncertainty theta = 0.007943, k = 0.149794
        27        54        49     1      110.217361      539.008256    ;  uncertainty theta = 0.002624, k = 0.117635
        27        54        55     1      106.798874      375.320269    ;  uncertainty theta = 0.002752, k = 0.112844
        27        54        56     1      106.798874      375.320269    ;  uncertainty theta = 0.002752, k = 0.112844
        28        34        35     1      122.344772      278.941910    ;  uncertainty theta = 0.002695, k = 0.055069
        28        34        38     1      115.447708      471.686690    ;  uncertainty theta = 0.003248, k = 0.205521
        29        28        34     1      118.454575      505.995701    ;  uncertainty theta = 0.002219, k = 0.025659
        30        27        33     1      111.480995      561.387191    ;  uncertainty theta = 0.006127, k = 0.046171
        30        27        54     1      110.643761      606.210947    ;  uncertainty theta = 0.008303, k = 0.267095
        30        36        40     1      107.863991      396.660418    ;  uncertainty theta = 0.001008, k = 0.062207
        30        36        41     1      107.863991      396.660418    ;  uncertainty theta = 0.001008, k = 0.062207
        30        36        43     1      109.361328      608.117356    ;  uncertainty theta = 0.001858, k = 0.123060
        31        30        32     1      105.426979      320.993995    ;  uncertainty theta = 0.002023, k = 0.045258
        31        30        36     1      108.921654      411.595956    ;  uncertainty theta = 0.001154, k = 0.062481
        32        30        36     1      108.921654      411.595956    ;  uncertainty theta = 0.001154, k = 0.062481
        33        27        54     1      111.480995      561.387191    ;  uncertainty theta = 0.006127, k = 0.046171
        33        37        42     1      117.564781      275.293870    ;  uncertainty theta = 0.003757, k = 0.038566
        33        37        46     1      123.496582      520.698660    ;  uncertainty theta = 0.004152, k = 0.157255
        33        59        57     1      120.930031      511.432647    ;  uncertainty theta = 0.003374, k = 0.031879
        33        59        60     1      118.326111      272.222011    ;  uncertainty theta = 0.003077, k = 0.075549
        34        38        39     1      118.454575      505.995669    ;  uncertainty theta = 0.002219, k = 0.025659
        34        38        47     1      123.554550      364.762558    ;  uncertainty theta = 0.003888, k = 0.175926
        35        34        38     1      122.344772      278.941910    ;  uncertainty theta = 0.002695, k = 0.055069
        36        43        44     1      108.647804      401.629206    ;  uncertainty theta = 0.001491, k = 0.045044
        36        43        45     1      108.647804      401.629206    ;  uncertainty theta = 0.001491, k = 0.045044
        36        43        49     1      108.296860      637.048858    ;  uncertainty theta = 0.003751, k = 0.180945
        37        33        59     1      122.972031      447.157850    ;  uncertainty theta = 0.005651, k = 0.201273
        37        46        52     1      120.074326      439.944287    ;  uncertainty theta = 0.006933, k = 0.171714
        37        46        61     1      119.951035      398.443100    ;  uncertainty theta = 0.006011, k = 0.098026
        38        47        48     1      120.595474      288.744329    ;  uncertainty theta = 0.002236, k = 0.050484
        39        38        47     1      119.004456      504.013095    ;  uncertainty theta = 0.001605, k = 0.057410
        40        36        41     1      104.333008      313.158891    ;  uncertainty theta = 0.002478, k = 0.062600
        40        36        43     1      108.923805      408.723159    ;  uncertainty theta = 0.001037, k = 0.031041
        41        36        43     1      108.923805      408.723159    ;  uncertainty theta = 0.001037, k = 0.031041
        42        37        46     1      117.864182      276.649539    ;  uncertainty theta = 0.003552, k = 0.155428
        43        49        50     1      108.923805      408.723064    ;  uncertainty theta = 0.001037, k = 0.031041
        43        49        51     1      108.923805      408.723064    ;  uncertainty theta = 0.001037, k = 0.031041
        43        49        54     1      109.361328      608.117484    ;  uncertainty theta = 0.001858, k = 0.123060
        44        43        45     1      104.148109      315.320671    ;  uncertainty theta = 0.002590, k = 0.057682
        44        43        49     1      108.647804      401.629206    ;  uncertainty theta = 0.001491, k = 0.045044
        45        43        49     1      108.647804      401.629206    ;  uncertainty theta = 0.001491, k = 0.045044
        46        52        53     1      118.786522      265.987046    ;  uncertainty theta = 0.000899, k = 0.049289
        46        52        57     1      120.116684      530.530830    ;  uncertainty theta = 0.003349, k = 0.109828
        46        61        62     1      112.006676      552.329179    ;  uncertainty theta = 0.000751, k = 0.051710
        46        61        65     1      112.006676      552.329179    ;  uncertainty theta = 0.000751, k = 0.051710
        46        61        66     1      105.426697      394.595392    ;  uncertainty theta = 0.001255, k = 0.026962
        49        54        55     1      108.921654      411.595893    ;  uncertainty theta = 0.001154, k = 0.062481
        49        54        56     1      108.921654      411.595893    ;  uncertainty theta = 0.001154, k = 0.062481
        50        49        51     1      104.333008      313.158859    ;  uncertainty theta = 0.002478, k = 0.062600
        50        49        54     1      107.863991      396.660418    ;  uncertainty theta = 0.001008, k = 0.062208
        51        49        54     1      107.863991      396.660418    ;  uncertainty theta = 0.001008, k = 0.062208
        52        46        61     1      121.091530      426.348106    ;  uncertainty theta = 0.003268, k = 0.195414
        52        57        58     1      120.466393      285.365035    ;  uncertainty theta = 0.000326, k = 0.031891
        52        57        59     1      120.526466      509.840791    ;  uncertainty theta = 0.002225, k = 0.116993
        53        52        57     1      120.066345      294.945793    ;  uncertainty theta = 0.001410, k = 0.027938
        55        54        56     1      105.426979      320.994059    ;  uncertainty theta = 0.002023, k = 0.045258
        57        59        60     1      119.705849      304.064775    ;  uncertainty theta = 0.004111, k = 0.065209
        58        57        59     1      119.814865      281.594130    ;  uncertainty theta = 0.001642, k = 0.036256
        61        62        63     1      108.037270      694.415804    ;  uncertainty theta = 0.001179, k = 0.055602
        61        62        67     1      108.593040      392.426366    ;  uncertainty theta = 0.001438, k = 0.046447
        61        62        68     1      108.593040      392.426366    ;  uncertainty theta = 0.001438, k = 0.046447
        61        65        64     1      108.037270      694.415804    ;  uncertainty theta = 0.001179, k = 0.055602
        61        65        73     1      108.593040      392.426366    ;  uncertainty theta = 0.001438, k = 0.046447
        61        65        74     1      108.593040      392.426366    ;  uncertainty theta = 0.001438, k = 0.046447
        62        61        65     1      106.655441      741.146543    ;  uncertainty theta = 0.001767, k = 0.110247
        62        61        66     1      108.049416      399.987361    ;  uncertainty theta = 0.002848, k = 0.074105
        62        63        64     1      107.769920      711.164955    ;  uncertainty theta = 0.001458, k = 0.068530
        62        63        69     1      109.445724      405.344217    ;  uncertainty theta = 0.001203, k = 0.014960
        62        63        70     1      109.445717      405.344217    ;  uncertainty theta = 0.001203, k = 0.014960
        63        62        67     1      109.747421      411.579613    ;  uncertainty theta = 0.001046, k = 0.032849
        63        62        68     1      109.747421      411.579613    ;  uncertainty theta = 0.001046, k = 0.032849
        63        64        65     1      107.769920      711.164955    ;  uncertainty theta = 0.001458, k = 0.068530
        63        64        71     1      109.691528      402.968021    ;  uncertainty theta = 0.001023, k = 0.029950
        63        64        72     1      109.691528      402.968021    ;  uncertainty theta = 0.001023, k = 0.029950
        64        63        69     1      109.691528      402.968021    ;  uncertainty theta = 0.001023, k = 0.029950
        64        63        70     1      109.691528      402.968021    ;  uncertainty theta = 0.001023, k = 0.029950
        64        65        73     1      109.747421      411.579613    ;  uncertainty theta = 0.001046, k = 0.032849
        64        65        74     1      109.747421      411.579613    ;  uncertainty theta = 0.001046, k = 0.032849
        65        61        66     1      108.049416      399.987361    ;  uncertainty theta = 0.002848, k = 0.074105
        65        64        71     1      109.445717      405.344217    ;  uncertainty theta = 0.001203, k = 0.014960
        65        64        72     1      109.445717      405.344217    ;  uncertainty theta = 0.001203, k = 0.014960
        67        62        68     1      104.849625      305.669431    ;  uncertainty theta = 0.002495, k = 0.029500
        69        63        70     1      104.214310      304.334224    ;  uncertainty theta = 0.001812, k = 0.026747
        71        64        72     1      104.214310      304.334224    ;  uncertainty theta = 0.001812, k = 0.026747
        73        65        74     1      104.849625      305.669431    ;  uncertainty theta = 0.002495, k = 0.029500

[ dihedrals ] ; propers for gromacs 4.5 or higher, use funct 9
;       ai        aj        ak        al funct           phase               k        pn
         1         5         7         8     9        0.000000       -0.719318         1    ;  uncertainty k = 0.444691
         1         5         7         8     9      180.000000        6.827135         2    ;  uncertainty k = 0.793821
         1         5         7         8     9        0.000000        1.847964         3    ;  uncertainty k = 0.175876
         1         5         7         8     9      180.000000        0.561429         4    ;  uncertainty k = 0.272301
         1         5         7         9     9        0.000000        6.564236         1    ;  uncertainty k = 0.730976
         1         5         7         9     9      180.000000       10.882230         2    ;  uncertainty k = 0.271174
         1         5         7         9     9        0.000000        1.797450         3    ;  uncertainty k = 0.074608
         1         5         7         9     9      180.000000       -0.307230         4    ;  uncertainty k = 0.362348
         2         1         5         6     9        0.000000        0.326532         1    ;  uncertainty k = 0.130575
         2         1         5         6     9      180.000000        3.580846         2    ;  uncertainty k = 0.150349
         2         1         5         6     9        0.000000        0.496853         3    ;  uncertainty k = 0.061068
         2         1         5         6     9      180.000000        0.159073         4    ;  uncertainty k = 0.042397
         2         1         5         7     9        0.000000       -0.987141         1    ;  uncertainty k = 0.287749
         2         1         5         7     9      180.000000        1.715337         2    ;  uncertainty k = 0.242814
         2         1         5         7     9        0.000000        0.297998         3    ;  uncertainty k = 0.030371
         2         1         5         7     9      180.000000       -0.046045         4    ;  uncertainty k = 0.041242
         3         1         5         6     9        0.000000        0.326532         1    ;  uncertainty k = 0.130575
         3         1         5         6     9      180.000000        3.580846         2    ;  uncertainty k = 0.150349
         3         1         5         6     9        0.000000        0.496853         3    ;  uncertainty k = 0.061068
         3         1         5         6     9      180.000000        0.159073         4    ;  uncertainty k = 0.042397
         3         1         5         7     9        0.000000       -0.987141         1    ;  uncertainty k = 0.287749
         3         1         5         7     9      180.000000        1.715337         2    ;  uncertainty k = 0.242814
         3         1         5         7     9        0.000000        0.297998         3    ;  uncertainty k = 0.030371
         3         1         5         7     9      180.000000       -0.046045         4    ;  uncertainty k = 0.041242
         4         1         5         6     9        0.000000        0.326532         1    ;  uncertainty k = 0.130575
         4         1         5         6     9      180.000000        3.580846         2    ;  uncertainty k = 0.150349
         4         1         5         6     9        0.000000        0.496853         3    ;  uncertainty k = 0.061068
         4         1         5         6     9      180.000000        0.159073         4    ;  uncertainty k = 0.042397
         4         1         5         7     9        0.000000       -0.987141         1    ;  uncertainty k = 0.287749
         4         1         5         7     9      180.000000        1.715337         2    ;  uncertainty k = 0.242814
         4         1         5         7     9        0.000000        0.297998         3    ;  uncertainty k = 0.030371
         4         1         5         7     9      180.000000       -0.046045         4    ;  uncertainty k = 0.041242
         5         7         9        10     9        0.000000        0.673190         1    ;  uncertainty k = 0.451446
         5         7         9        10     9      180.000000       -0.483797         2    ;  uncertainty k = 0.214923
         5         7         9        10     9        0.000000       -0.049722         3    ;  uncertainty k = 0.094428
         5         7         9        10     9      180.000000        0.206578         4    ;  uncertainty k = 0.148130
         5         7         9        11     9        0.000000        3.180514         1    ;  uncertainty k = 1.157529
         5         7         9        11     9      180.000000       -0.329367         2    ;  uncertainty k = 0.233157
         5         7         9        11     9        0.000000        0.024204         3    ;  uncertainty k = 0.231957
         5         7         9        11     9      180.000000        0.586908         4    ;  uncertainty k = 0.120769
         5         7         9        13     9        0.000000       -0.380436         1    ;  uncertainty k = 0.142963
         5         7         9        13     9      180.000000       -0.107031         2    ;  uncertainty k = 0.285790
         5         7         9        13     9        0.000000        0.330771         3    ;  uncertainty k = 0.193628
         5         7         9        13     9      180.000000        0.546802         4    ;  uncertainty k = 0.084671
         6         5         7         8     9        0.000000        4.249161         1    ;  uncertainty k = 0.379485
         6         5         7         8     9      180.000000       16.872695         2    ;  uncertainty k = 0.065678
         6         5         7         8     9        0.000000        1.027067         3    ;  uncertainty k = 0.234732
         6         5         7         8     9      180.000000       -0.366950         4    ;  uncertainty k = 0.092394
         6         5         7         9     9        0.000000        9.060147         1    ;  uncertainty k = 0.596169
         6         5         7         9     9      180.000000       17.377883         2    ;  uncertainty k = 0.143241
         6         5         7         9     9        0.000000        0.439552         3    ;  uncertainty k = 0.127544
         6         5         7         9     9      180.000000       -0.656366         4    ;  uncertainty k = 0.225470
         7         9        11        12     9        0.000000       -0.464787         1    ;  uncertainty k = 0.317316
         7         9        11        12     9      180.000000       -0.533075         2    ;  uncertainty k = 0.690221
         7         9        11        12     9        0.000000        0.725956         3    ;  uncertainty k = 0.201532
         7         9        11        12     9      180.000000       -0.178686         4    ;  uncertainty k = 0.089549
         7         9        11        16     9        0.000000       -3.063991         1    ;  uncertainty k = 1.250940
         7         9        11        16     9      180.000000       -0.682496         2    ;  uncertainty k = 0.425403
         7         9        11        16     9        0.000000        0.924527         3    ;  uncertainty k = 0.187029
         7         9        11        16     9      180.000000       -0.350198         4    ;  uncertainty k = 0.168794
         7         9        11        20     9        0.000000        0.177251         1    ;  uncertainty k = 0.746902
         7         9        11        20     9      180.000000       -0.624156         2    ;  uncertainty k = 0.788828
         7         9        11        20     9        0.000000        1.600977         3    ;  uncertainty k = 0.346594
         7         9        11        20     9      180.000000       -0.637356         4    ;  uncertainty k = 0.310004
         7         9        13        14     9        0.000000       -1.135580         1    ;  uncertainty k = 0.140856
         7         9        13        14     9      180.000000       -0.977834         2    ;  uncertainty k = 0.145134
         7         9        13        14     9        0.000000        1.043071         3    ;  uncertainty k = 0.103805
         7         9        13        14     9      180.000000       -0.224633         4    ;  uncertainty k = 0.175797
         7         9        13        15     9        0.000000       -1.135580         1    ;  uncertainty k = 0.140856
         7         9        13        15     9      180.000000       -0.977834         2    ;  uncertainty k = 0.145134
         7         9        13        15     9        0.000000        1.043071         3    ;  uncertainty k = 0.103805
         7         9        13        15     9      180.000000       -0.224633         4    ;  uncertainty k = 0.175797
         7         9        13        19     9        0.000000       -1.530754         1    ;  uncertainty k = 0.475762
         7         9        13        19     9      180.000000       -1.330757         2    ;  uncertainty k = 0.640028
         7         9        13        19     9        0.000000        1.965079         3    ;  uncertainty k = 0.272575
         7         9        13        19     9      180.000000       -0.047228         4    ;  uncertainty k = 0.209121
         8         7         9        10     9        0.000000        1.615267         1    ;  uncertainty k = 0.349654
         8         7         9        10     9      180.000000       -0.419932         2    ;  uncertainty k = 0.383461
         8         7         9        10     9        0.000000        0.522848         3    ;  uncertainty k = 0.230461
         8         7         9        10     9      180.000000        0.041935         4    ;  uncertainty k = 0.079234
         8         7         9        11     9        0.000000        2.396530         1    ;  uncertainty k = 1.071634
         8         7         9        11     9      180.000000       -2.433379         2    ;  uncertainty k = 0.692961
         8         7         9        11     9        0.000000        0.603149         3    ;  uncertainty k = 0.190766
         8         7         9        11     9      180.000000        0.172558         4    ;  uncertainty k = 0.089493
         8         7         9        13     9        0.000000        2.412732         1    ;  uncertainty k = 0.727962
         8         7         9        13     9      180.000000       -1.144206         2    ;  uncertainty k = 0.178406
         8         7         9        13     9        0.000000        0.413338         3    ;  uncertainty k = 0.162067
         8         7         9        13     9      180.000000        0.140362         4    ;  uncertainty k = 0.046152
         9        11        16        17     9        0.000000       -0.746594         1    ;  uncertainty k = 0.606990
         9        11        16        17     9      180.000000        0.070627         2    ;  uncertainty k = 0.410305
         9        11        16        17     9        0.000000        0.325941         3    ;  uncertainty k = 0.064010
         9        11        16        17     9      180.000000       -0.240217         4    ;  uncertainty k = 0.174087
         9        11        16        18     9        0.000000       -0.746594         1    ;  uncertainty k = 0.606990
         9        11        16        18     9      180.000000        0.070627         2    ;  uncertainty k = 0.410305
         9        11        16        18     9        0.000000        0.325941         3    ;  uncertainty k = 0.064010
         9        11        16        18     9      180.000000       -0.240217         4    ;  uncertainty k = 0.174087
         9        11        16        22     9        0.000000       -2.721523         1    ;  uncertainty k = 2.037142
         9        11        16        22     9      180.000000       -1.994497         2    ;  uncertainty k = 0.706500
         9        11        16        22     9        0.000000        1.383758         3    ;  uncertainty k = 0.198115
         9        11        16        22     9      180.000000       -0.265515         4    ;  uncertainty k = 0.317177
         9        11        20        21     9        0.000000       18.922994         1    ;  uncertainty k = 0.298753
         9        11        20        21     9      180.000000       -3.432350         2    ;  uncertainty k = 0.393515
         9        11        20        21     9        0.000000        1.234355         3    ;  uncertainty k = 0.173337
         9        11        20        21     9      180.000000        0.343231         4    ;  uncertainty k = 0.075406
         9        13        19        24     9        0.000000        0.015961         1    ;  uncertainty k = 0.447291
         9        13        19        24     9      180.000000        1.479336         2    ;  uncertainty k = 0.197948
         9        13        19        24     9        0.000000        0.701691         3    ;  uncertainty k = 0.200767
         9        13        19        24     9      180.000000        0.342416         4    ;  uncertainty k = 0.070936
         9        13        19        47     9        0.000000        0.015961         1    ;  uncertainty k = 0.447288
         9        13        19        47     9      180.000000        1.479336         2    ;  uncertainty k = 0.197947
         9        13        19        47     9        0.000000        0.701691         3    ;  uncertainty k = 0.200768
         9        13        19        47     9      180.000000        0.342416         4    ;  uncertainty k = 0.070935
        10         9        11        12     9        0.000000        0.386005         1    ;  uncertainty k = 0.297791
        10         9        11        12     9      180.000000       -0.335124         2    ;  uncertainty k = 0.468728
        10         9        11        12     9        0.000000       -0.180620         3    ;  uncertainty k = 0.158635
        10         9        11        12     9      180.000000       -0.158597         4    ;  uncertainty k = 0.085571
        10         9        11        16     9        0.000000       -1.532420         1    ;  uncertainty k = 0.476672
        10         9        11        16     9      180.000000       -0.362009         2    ;  uncertainty k = 0.387921
        10         9        11        16     9        0.000000        0.096741         3    ;  uncertainty k = 0.093582
        10         9        11        16     9      180.000000       -0.220479         4    ;  uncertainty k = 0.064813
        10         9        11        20     9        0.000000       -0.963862         1    ;  uncertainty k = 0.487834
        10         9        11        20     9      180.000000       -0.431115         2    ;  uncertainty k = 0.551956
        10         9        11        20     9        0.000000        0.681317         3    ;  uncertainty k = 0.209680
        10         9        11        20     9      180.000000       -0.145731         4    ;  uncertainty k = 0.172707
        10         9        13        14     9        0.000000        1.003432         1    ;  uncertainty k = 0.142375
        10         9        13        14     9      180.000000       -0.763879         2    ;  uncertainty k = 0.190174
        10         9        13        14     9        0.000000       -0.150781         3    ;  uncertainty k = 0.200723
        10         9        13        14     9      180.000000       -0.028987         4    ;  uncertainty k = 0.020283
        10         9        13        15     9        0.000000        1.003432         1    ;  uncertainty k = 0.142375
        10         9        13        15     9      180.000000       -0.763879         2    ;  uncertainty k = 0.190174
        10         9        13        15     9        0.000000       -0.150781         3    ;  uncertainty k = 0.200723
        10         9        13        15     9      180.000000       -0.028987         4    ;  uncertainty k = 0.020283
        10         9        13        19     9        0.000000        0.663870         1    ;  uncertainty k = 0.280445
        10         9        13        19     9      180.000000       -0.659159         2    ;  uncertainty k = 0.292236
        10         9        13        19     9        0.000000        0.782258         3    ;  uncertainty k = 0.187761
        10         9        13        19     9      180.000000        0.056644         4    ;  uncertainty k = 0.060309
        11         9        13        14     9        0.000000       -0.833757         1    ;  uncertainty k = 0.318168
        11         9        13        14     9      180.000000       -0.513486         2    ;  uncertainty k = 0.291784
        11         9        13        14     9        0.000000        0.435444         3    ;  uncertainty k = 0.098110
        11         9        13        14     9      180.000000       -0.244629         4    ;  uncertainty k = 0.096307
        11         9        13        15     9        0.000000       -0.833757         1    ;  uncertainty k = 0.318168
        11         9        13        15     9      180.000000       -0.513486         2    ;  uncertainty k = 0.291784
        11         9        13        15     9        0.000000        0.435444         3    ;  uncertainty k = 0.098110
        11         9        13        15     9      180.000000       -0.244629         4    ;  uncertainty k = 0.096307
        11         9        13        19     9        0.000000        0.127953         1    ;  uncertainty k = 1.200013
        11         9        13        19     9      180.000000       -0.422221         2    ;  uncertainty k = 0.434810
        11         9        13        19     9        0.000000        1.156386         3    ;  uncertainty k = 0.343960
        11         9        13        19     9      180.000000       -0.125143         4    ;  uncertainty k = 0.138626
        11        16        22        23     9        0.000000        2.457270         1    ;  uncertainty k = 1.488027
        11        16        22        23     9      180.000000       -0.773804         2    ;  uncertainty k = 0.287470
        11        16        22        23     9        0.000000        0.533505         3    ;  uncertainty k = 0.104350
        11        16        22        23     9      180.000000       -0.282229         4    ;  uncertainty k = 0.192333
        11        16        22        26     9        0.000000        2.457270         1    ;  uncertainty k = 1.488027
        11        16        22        26     9      180.000000       -0.773804         2    ;  uncertainty k = 0.287470
        11        16        22        26     9        0.000000        0.533505         3    ;  uncertainty k = 0.104350
        11        16        22        26     9      180.000000       -0.282229         4    ;  uncertainty k = 0.192333
        11        16        22        27     9        0.000000       -0.618240         1    ;  uncertainty k = 0.776786
        11        16        22        27     9      180.000000       -0.765292         2    ;  uncertainty k = 0.842332
        11        16        22        27     9        0.000000        0.774132         3    ;  uncertainty k = 0.112185
        11        16        22        27     9      180.000000       -0.198254         4    ;  uncertainty k = 0.143715
        12        11         9        13     9        0.000000       -1.470180         1    ;  uncertainty k = 0.388134
        12        11         9        13     9      180.000000       -0.189690         2    ;  uncertainty k = 0.339954
        12        11         9        13     9        0.000000        0.262476         3    ;  uncertainty k = 0.130680
        12        11         9        13     9      180.000000       -0.175710         4    ;  uncertainty k = 0.057046
        12        11        16        17     9        0.000000       -0.190940         1    ;  uncertainty k = 0.376092
        12        11        16        17     9      180.000000        0.086053         2    ;  uncertainty k = 0.282313
        12        11        16        17     9        0.000000        0.087055         3    ;  uncertainty k = 0.123049
        12        11        16        17     9      180.000000       -0.006018         4    ;  uncertainty k = 0.068267
        12        11        16        18     9        0.000000       -0.190940         1    ;  uncertainty k = 0.376092
        12        11        16        18     9      180.000000        0.086053         2    ;  uncertainty k = 0.282313
        12        11        16        18     9        0.000000        0.087055         3    ;  uncertainty k = 0.123049
        12        11        16        18     9      180.000000       -0.006018         4    ;  uncertainty k = 0.068267
        12        11        16        22     9        0.000000       -0.686426         1    ;  uncertainty k = 0.601337
        12        11        16        22     9      180.000000       -2.837728         2    ;  uncertainty k = 0.870717
        12        11        16        22     9        0.000000        0.757431         3    ;  uncertainty k = 0.338154
        12        11        16        22     9      180.000000       -0.084817         4    ;  uncertainty k = 0.123537
        12        11        20        21     9        0.000000       13.155354         1    ;  uncertainty k = 0.207070
        12        11        20        21     9      180.000000       -1.919911         2    ;  uncertainty k = 0.136380
        12        11        20        21     9        0.000000        0.850953         3    ;  uncertainty k = 0.240363
        12        11        20        21     9      180.000000        0.270513         4    ;  uncertainty k = 0.106751
        13         9        11        16     9        0.000000       -3.571868         1    ;  uncertainty k = 0.805517
        13         9        11        16     9      180.000000        0.257577         2    ;  uncertainty k = 0.452772
        13         9        11        16     9        0.000000        0.661496         3    ;  uncertainty k = 0.214901
        13         9        11        16     9      180.000000       -0.509714         4    ;  uncertainty k = 0.205263
        13         9        11        20     9        0.000000       -2.882812         1    ;  uncertainty k = 0.437233
        13         9        11        20     9      180.000000        0.485460         2    ;  uncertainty k = 0.456214
        13         9        11        20     9        0.000000        1.153035         3    ;  uncertainty k = 0.206076
        13         9        11        20     9      180.000000       -0.393370         4    ;  uncertainty k = 0.109330
        13        19        24        25     9        0.000000       -0.263120         1    ;  uncertainty k = 0.264083
        13        19        24        25     9      180.000000        7.632151         2    ;  uncertainty k = 0.140015
        13        19        24        25     9        0.000000        0.567010         3    ;  uncertainty k = 0.309115
        13        19        24        25     9      180.000000        0.910084         4    ;  uncertainty k = 0.163563
        13        19        24        28     9        0.000000        0.110074         1    ;  uncertainty k = 0.214268
        13        19        24        28     9      180.000000        9.904684         2    ;  uncertainty k = 0.364719
        13        19        24        28     9        0.000000        1.390292         3    ;  uncertainty k = 0.243449
        13        19        24        28     9      180.000000        1.740266         4    ;  uncertainty k = 0.150935
        13        19        47        38     9        0.000000        0.110074         1    ;  uncertainty k = 0.214267
        13        19        47        38     9      180.000000        9.904686         2    ;  uncertainty k = 0.364720
        13        19        47        38     9        0.000000        1.390292         3    ;  uncertainty k = 0.243448
        13        19        47        38     9      180.000000        1.740266         4    ;  uncertainty k = 0.150935
        13        19        47        48     9        0.000000       -0.263121         1    ;  uncertainty k = 0.264083
        13        19        47        48     9      180.000000        7.632152         2    ;  uncertainty k = 0.140016
        13        19        47        48     9        0.000000        0.567011         3    ;  uncertainty k = 0.309115
        13        19        47        48     9      180.000000        0.910084         4    ;  uncertainty k = 0.163562
        14        13        19        24     9        0.000000       -0.039094         1    ;  uncertainty k = 0.264408
        14        13        19        24     9      180.000000        2.012165         2    ;  uncertainty k = 0.154154
        14        13        19        24     9        0.000000        0.435444         3    ;  uncertainty k = 0.052440
        14        13        19        24     9      180.000000        0.245682         4    ;  uncertainty k = 0.058980
        14        13        19        47     9        0.000000       -0.039094         1    ;  uncertainty k = 0.264407
        14        13        19        47     9      180.000000        2.012165         2    ;  uncertainty k = 0.154152
        14        13        19        47     9        0.000000        0.435445         3    ;  uncertainty k = 0.052439
        14        13        19        47     9      180.000000        0.245682         4    ;  uncertainty k = 0.058979
        15        13        19        24     9        0.000000       -0.039094         1    ;  uncertainty k = 0.264408
        15        13        19        24     9      180.000000        2.012165         2    ;  uncertainty k = 0.154154
        15        13        19        24     9        0.000000        0.435444         3    ;  uncertainty k = 0.052440
        15        13        19        24     9      180.000000        0.245682         4    ;  uncertainty k = 0.058980
        15        13        19        47     9        0.000000       -0.039094         1    ;  uncertainty k = 0.264407
        15        13        19        47     9      180.000000        2.012165         2    ;  uncertainty k = 0.154152
        15        13        19        47     9        0.000000        0.435445         3    ;  uncertainty k = 0.052439
        15        13        19        47     9      180.000000        0.245682         4    ;  uncertainty k = 0.058979
        16        11        20        21     9        0.000000       16.389838         1    ;  uncertainty k = 0.301224
        16        11        20        21     9      180.000000       -3.672201         2    ;  uncertainty k = 0.592037
        16        11        20        21     9        0.000000        1.291159         3    ;  uncertainty k = 0.170917
        16        11        20        21     9      180.000000        0.422890         4    ;  uncertainty k = 0.078252
        16        22        27        30     9        0.000000       -0.597343         1    ;  uncertainty k = 0.431671
        16        22        27        30     9      180.000000        0.816447         2    ;  uncertainty k = 0.440829
        16        22        27        30     9        0.000000        0.910721         3    ;  uncertainty k = 0.199554
        16        22        27        30     9      180.000000       -0.096987         4    ;  uncertainty k = 0.072643
        16        22        27        33     9        0.000000        0.797997         1    ;  uncertainty k = 0.701485
        16        22        27        33     9      180.000000       -0.134897         2    ;  uncertainty k = 0.786490
        16        22        27        33     9        0.000000        1.316945         3    ;  uncertainty k = 0.239632
        16        22        27        33     9      180.000000       -0.072933         4    ;  uncertainty k = 0.199875
        16        22        27        54     9        0.000000       -0.597343         1    ;  uncertainty k = 0.431669
        16        22        27        54     9      180.000000        0.816446         2    ;  uncertainty k = 0.440830
        16        22        27        54     9        0.000000        0.910721         3    ;  uncertainty k = 0.199554
        16        22        27        54     9      180.000000       -0.096987         4    ;  uncertainty k = 0.072643
        17        16        11        20     9        0.000000       -0.514289         1    ;  uncertainty k = 0.473599
        17        16        11        20     9      180.000000       -0.198718         2    ;  uncertainty k = 0.779969
        17        16        11        20     9        0.000000        0.827571         3    ;  uncertainty k = 0.290358
        17        16        11        20     9      180.000000       -0.067448         4    ;  uncertainty k = 0.211703
        17        16        22        23     9        0.000000        0.370280         1    ;  uncertainty k = 0.636238
        17        16        22        23     9      180.000000       -0.132100         2    ;  uncertainty k = 0.238132
        17        16        22        23     9        0.000000        0.259720         3    ;  uncertainty k = 0.102797
        17        16        22        23     9      180.000000        0.015971         4    ;  uncertainty k = 0.168575
        17        16        22        26     9        0.000000        0.370280         1    ;  uncertainty k = 0.636238
        17        16        22        26     9      180.000000       -0.132100         2    ;  uncertainty k = 0.238132
        17        16        22        26     9        0.000000        0.259720         3    ;  uncertainty k = 0.102797
        17        16        22        26     9      180.000000        0.015971         4    ;  uncertainty k = 0.168575
        17        16        22        27     9        0.000000        0.774376         1    ;  uncertainty k = 0.655808
        17        16        22        27     9      180.000000       -0.998969         2    ;  uncertainty k = 0.233861
        17        16        22        27     9        0.000000        0.865937         3    ;  uncertainty k = 0.137060
        17        16        22        27     9      180.000000       -0.083516         4    ;  uncertainty k = 0.175879
        18        16        11        20     9        0.000000       -0.514289         1    ;  uncertainty k = 0.473599
        18        16        11        20     9      180.000000       -0.198718         2    ;  uncertainty k = 0.779969
        18        16        11        20     9        0.000000        0.827571         3    ;  uncertainty k = 0.290358
        18        16        11        20     9      180.000000       -0.067448         4    ;  uncertainty k = 0.211703
        18        16        22        23     9        0.000000        0.370280         1    ;  uncertainty k = 0.636238
        18        16        22        23     9      180.000000       -0.132100         2    ;  uncertainty k = 0.238132
        18        16        22        23     9        0.000000        0.259720         3    ;  uncertainty k = 0.102797
        18        16        22        23     9      180.000000        0.015971         4    ;  uncertainty k = 0.168575
        18        16        22        26     9        0.000000        0.370280         1    ;  uncertainty k = 0.636238
        18        16        22        26     9      180.000000       -0.132100         2    ;  uncertainty k = 0.238132
        18        16        22        26     9        0.000000        0.259720         3    ;  uncertainty k = 0.102797
        18        16        22        26     9      180.000000        0.015971         4    ;  uncertainty k = 0.168575
        18        16        22        27     9        0.000000        0.774376         1    ;  uncertainty k = 0.655808
        18        16        22        27     9      180.000000       -0.998969         2    ;  uncertainty k = 0.233861
        18        16        22        27     9        0.000000        0.865937         3    ;  uncertainty k = 0.137060
        18        16        22        27     9      180.000000       -0.083516         4    ;  uncertainty k = 0.175879
        19        24        28        29     9        0.000000       -0.127667         1    ;  uncertainty k = 0.303255
        19        24        28        29     9      180.000000       12.478619         2    ;  uncertainty k = 0.567057
        19        24        28        29     9        0.000000        1.533163         3    ;  uncertainty k = 0.276196
        19        24        28        29     9      180.000000        1.474302         4    ;  uncertainty k = 0.234352
        19        24        28        34     9        0.000000       -0.053166         1    ;  uncertainty k = 0.191079
        19        24        28        34     9      180.000000        8.783283         2    ;  uncertainty k = 0.607469
        19        24        28        34     9        0.000000       -0.050043         3    ;  uncertainty k = 0.446776
        19        24        28        34     9      180.000000        1.273740         4    ;  uncertainty k = 0.296894
        19        47        38        34     9        0.000000       -0.053167         1    ;  uncertainty k = 0.191078
        19        47        38        34     9      180.000000        8.783284         2    ;  uncertainty k = 0.607468
        19        47        38        34     9        0.000000       -0.050044         3    ;  uncertainty k = 0.446777
        19        47        38        34     9      180.000000        1.273740         4    ;  uncertainty k = 0.296895
        19        47        38        39     9        0.000000       -0.127666         1    ;  uncertainty k = 0.303255
        19        47        38        39     9      180.000000       12.478619         2    ;  uncertainty k = 0.567057
        19        47        38        39     9        0.000000        1.533163         3    ;  uncertainty k = 0.276196
        19        47        38        39     9      180.000000        1.474302         4    ;  uncertainty k = 0.234352
        20        11        16        22     9        0.000000        4.304522         1    ;  uncertainty k = 1.001860
        20        11        16        22     9      180.000000       -2.577612         2    ;  uncertainty k = 0.965948
        20        11        16        22     9        0.000000        1.229514         3    ;  uncertainty k = 0.306165
        20        11        16        22     9      180.000000       -0.540715         4    ;  uncertainty k = 0.252532
        22        27        30        31     9        0.000000       -0.647045         1    ;  uncertainty k = 0.243970
        22        27        30        31     9      180.000000       -1.885652         2    ;  uncertainty k = 0.226030
        22        27        30        31     9        0.000000        0.576524         3    ;  uncertainty k = 0.154480
        22        27        30        31     9      180.000000       -0.208205         4    ;  uncertainty k = 0.133247
        22        27        30        32     9        0.000000       -0.647045         1    ;  uncertainty k = 0.243970
        22        27        30        32     9      180.000000       -1.885652         2    ;  uncertainty k = 0.226030
        22        27        30        32     9        0.000000        0.576524         3    ;  uncertainty k = 0.154480
        22        27        30        32     9      180.000000       -0.208205         4    ;  uncertainty k = 0.133247
        22        27        30        36     9        0.000000       -0.290797         1    ;  uncertainty k = 0.470419
        22        27        30        36     9      180.000000       -1.077800         2    ;  uncertainty k = 0.619420
        22        27        30        36     9        0.000000        1.044040         3    ;  uncertainty k = 0.400135
        22        27        30        36     9      180.000000        0.029196         4    ;  uncertainty k = 0.254797
        22        27        33        37     9        0.000000        0.549384         1    ;  uncertainty k = 0.935787
        22        27        33        37     9      180.000000        2.083129         2    ;  uncertainty k = 0.484796
        22        27        33        37     9        0.000000        0.680552         3    ;  uncertainty k = 0.222373
        22        27        33        37     9      180.000000        0.203586         4    ;  uncertainty k = 0.104900
        22        27        33        59     9        0.000000        0.034002         1    ;  uncertainty k = 0.448542
        22        27        33        59     9      180.000000        2.038204         2    ;  uncertainty k = 0.517832
        22        27        33        59     9        0.000000        0.670120         3    ;  uncertainty k = 0.247393
        22        27        33        59     9      180.000000        0.201015         4    ;  uncertainty k = 0.127317
        22        27        54        49     9        0.000000       -0.290798         1    ;  uncertainty k = 0.470418
        22        27        54        49     9      180.000000       -1.077801         2    ;  uncertainty k = 0.619421
        22        27        54        49     9        0.000000        1.044040         3    ;  uncertainty k = 0.400135
        22        27        54        49     9      180.000000        0.029196         4    ;  uncertainty k = 0.254798
        22        27        54        55     9        0.000000       -0.647044         1    ;  uncertainty k = 0.243972
        22        27        54        55     9      180.000000       -1.885650         2    ;  uncertainty k = 0.226029
        22        27        54        55     9        0.000000        0.576524         3    ;  uncertainty k = 0.154480
        22        27        54        55     9      180.000000       -0.208205         4    ;  uncertainty k = 0.133248
        22        27        54        56     9        0.000000       -0.647044         1    ;  uncertainty k = 0.243972
        22        27        54        56     9      180.000000       -1.885650         2    ;  uncertainty k = 0.226029
        22        27        54        56     9        0.000000        0.576524         3    ;  uncertainty k = 0.154480
        22        27        54        56     9      180.000000       -0.208205         4    ;  uncertainty k = 0.133248
        23        22        27        30     9        0.000000       -0.573717         1    ;  uncertainty k = 1.542229
        23        22        27        30     9      180.000000        0.371284         2    ;  uncertainty k = 0.537286
        23        22        27        30     9        0.000000        0.525394         3    ;  uncertainty k = 0.177202
        23        22        27        30     9      180.000000       -0.110754         4    ;  uncertainty k = 0.077114
        23        22        27        33     9        0.000000        3.183173         1    ;  uncertainty k = 1.069082
        23        22        27        33     9      180.000000        0.202269         2    ;  uncertainty k = 0.275797
        23        22        27        33     9        0.000000        0.641867         3    ;  uncertainty k = 0.412956
        23        22        27        33     9      180.000000       -0.149228         4    ;  uncertainty k = 0.120226
        23        22        27        54     9        0.000000       -0.573719         1    ;  uncertainty k = 1.542229
        23        22        27        54     9      180.000000        0.371286         2    ;  uncertainty k = 0.537285
        23        22        27        54     9        0.000000        0.525394         3    ;  uncertainty k = 0.177202
        23        22        27        54     9      180.000000       -0.110754         4    ;  uncertainty k = 0.077114
        24        19        47        38     9        0.000000       -0.194148         1    ;  uncertainty k = 0.229850
        24        19        47        38     9      180.000000       11.992983         2    ;  uncertainty k = 0.370745
        24        19        47        38     9        0.000000       -0.300681         3    ;  uncertainty k = 0.435491
        24        19        47        38     9      180.000000        0.903339         4    ;  uncertainty k = 0.359219
        24        19        47        48     9        0.000000        0.216233         1    ;  uncertainty k = 0.175925
        24        19        47        48     9      180.000000        7.293882         2    ;  uncertainty k = 0.645817
        24        19        47        48     9        0.000000        1.519205         3    ;  uncertainty k = 0.416345
        24        19        47        48     9      180.000000        1.640671         4    ;  uncertainty k = 0.160063
        24        28        34        35     9        0.000000        0.113274         1    ;  uncertainty k = 0.163886
        24        28        34        35     9      180.000000        5.570069         2    ;  uncertainty k = 0.658049
        24        28        34        35     9        0.000000        1.285226         3    ;  uncertainty k = 0.310395
        24        28        34        35     9      180.000000        1.458916         4    ;  uncertainty k = 0.148552
        24        28        34        38     9        0.000000       -0.020920         1    ;  uncertainty k = 0.157045
        24        28        34        38     9      180.000000        9.170649         2    ;  uncertainty k = 0.439327
        24        28        34        38     9        0.000000       -0.195729         3    ;  uncertainty k = 0.474557
        24        28        34        38     9      180.000000        1.239477         4    ;  uncertainty k = 0.264396
        25        24        19        47     9        0.000000        0.216234         1    ;  uncertainty k = 0.175926
        25        24        19        47     9      180.000000        7.293882         2    ;  uncertainty k = 0.645818
        25        24        19        47     9        0.000000        1.519205         3    ;  uncertainty k = 0.416346
        25        24        19        47     9      180.000000        1.640671         4    ;  uncertainty k = 0.160063
        25        24        28        29     9        0.000000       -0.338324         1    ;  uncertainty k = 0.125407
        25        24        28        29     9      180.000000        9.023859         2    ;  uncertainty k = 0.342385
        25        24        28        29     9        0.000000        0.780161         3    ;  uncertainty k = 0.283674
        25        24        28        29     9      180.000000        0.968908         4    ;  uncertainty k = 0.220959
        25        24        28        34     9        0.000000        0.000249         1    ;  uncertainty k = 0.206465
        25        24        28        34     9      180.000000        5.882344         2    ;  uncertainty k = 0.714480
        25        24        28        34     9        0.000000        1.305116         3    ;  uncertainty k = 0.360333
        25        24        28        34     9      180.000000        1.568343         4    ;  uncertainty k = 0.171881
        26        22        27        30     9        0.000000       -0.573717         1    ;  uncertainty k = 1.542229
        26        22        27        30     9      180.000000        0.371284         2    ;  uncertainty k = 0.537286
        26        22        27        30     9        0.000000        0.525394         3    ;  uncertainty k = 0.177202
        26        22        27        30     9      180.000000       -0.110754         4    ;  uncertainty k = 0.077114
        26        22        27        33     9        0.000000        3.183173         1    ;  uncertainty k = 1.069082
        26        22        27        33     9      180.000000        0.202269         2    ;  uncertainty k = 0.275797
        26        22        27        33     9        0.000000        0.641867         3    ;  uncertainty k = 0.412956
        26        22        27        33     9      180.000000       -0.149228         4    ;  uncertainty k = 0.120226
        26        22        27        54     9        0.000000       -0.573719         1    ;  uncertainty k = 1.542229
        26        22        27        54     9      180.000000        0.371286         2    ;  uncertainty k = 0.537285
        26        22        27        54     9        0.000000        0.525394         3    ;  uncertainty k = 0.177202
        26        22        27        54     9      180.000000       -0.110754         4    ;  uncertainty k = 0.077114
        27        30        36        40     9        0.000000       -0.407944         1    ;  uncertainty k = 0.525307
        27        30        36        40     9      180.000000       -1.098787         2    ;  uncertainty k = 0.249708
        27        30        36        40     9        0.000000        0.417833         3    ;  uncertainty k = 0.190233
        27        30        36        40     9      180.000000       -0.070139         4    ;  uncertainty k = 0.099482
        27        30        36        41     9        0.000000       -0.407944         1    ;  uncertainty k = 0.525307
        27        30        36        41     9      180.000000       -1.098787         2    ;  uncertainty k = 0.249708
        27        30        36        41     9        0.000000        0.417833         3    ;  uncertainty k = 0.190233
        27        30        36        41     9      180.000000       -0.070139         4    ;  uncertainty k = 0.099482
        27        30        36        43     9        0.000000       -4.114838         1    ;  uncertainty k = 0.876568
        27        30        36        43     9      180.000000       -1.148866         2    ;  uncertainty k = 0.718817
        27        30        36        43     9        0.000000        1.567937         3    ;  uncertainty k = 0.124713
        27        30        36        43     9      180.000000       -0.993753         4    ;  uncertainty k = 0.071509
        27        33        37        42     9        0.000000       -0.195408         1    ;  uncertainty k = 0.312982
        27        33        37        42     9      180.000000        7.526467         2    ;  uncertainty k = 0.346128
        27        33        37        42     9        0.000000        0.712235         3    ;  uncertainty k = 0.253324
        27        33        37        42     9      180.000000        1.024558         4    ;  uncertainty k = 0.251009
        27        33        37        46     9        0.000000        0.092003         1    ;  uncertainty k = 0.221343
        27        33        37        46     9      180.000000        8.563333         2    ;  uncertainty k = 0.557328
        27        33        37        46     9        0.000000        1.334639         3    ;  uncertainty k = 0.310356
        27        33        37        46     9      180.000000        1.649774         4    ;  uncertainty k = 0.230144
        27        33        59        57     9        0.000000        0.242964         1    ;  uncertainty k = 0.403800
        27        33        59        57     9      180.000000        8.987280         2    ;  uncertainty k = 0.763581
        27        33        59        57     9        0.000000        1.403289         3    ;  uncertainty k = 0.383948
        27        33        59        57     9      180.000000        1.704772         4    ;  uncertainty k = 0.244418
        27        33        59        60     9        0.000000       -0.183078         1    ;  uncertainty k = 0.268566
        27        33        59        60     9      180.000000        7.372924         2    ;  uncertainty k = 0.374536
        27        33        59        60     9        0.000000        0.722821         3    ;  uncertainty k = 0.282189
        27        33        59        60     9      180.000000        1.025813         4    ;  uncertainty k = 0.235520
        27        54        49        43     9        0.000000       -4.114840         1    ;  uncertainty k = 0.876572
        27        54        49        43     9      180.000000       -1.148867         2    ;  uncertainty k = 0.718817
        27        54        49        43     9        0.000000        1.567937         3    ;  uncertainty k = 0.124713
        27        54        49        43     9      180.000000       -0.993753         4    ;  uncertainty k = 0.071509
        27        54        49        50     9        0.000000       -0.407945         1    ;  uncertainty k = 0.525308
        27        54        49        50     9      180.000000       -1.098787         2    ;  uncertainty k = 0.249707
        27        54        49        50     9        0.000000        0.417833         3    ;  uncertainty k = 0.190233
        27        54        49        50     9      180.000000       -0.070139         4    ;  uncertainty k = 0.099482
        27        54        49        51     9        0.000000       -0.407945         1    ;  uncertainty k = 0.525308
        27        54        49        51     9      180.000000       -1.098787         2    ;  uncertainty k = 0.249707
        27        54        49        51     9        0.000000        0.417833         3    ;  uncertainty k = 0.190233
        27        54        49        51     9      180.000000       -0.070139         4    ;  uncertainty k = 0.099482
        28        24        19        47     9        0.000000       -0.194148         1    ;  uncertainty k = 0.229850
        28        24        19        47     9      180.000000       11.992984         2    ;  uncertainty k = 0.370744
        28        24        19        47     9        0.000000       -0.300681         3    ;  uncertainty k = 0.435492
        28        24        19        47     9      180.000000        0.903339         4    ;  uncertainty k = 0.359220
        28        34        38        39     9        0.000000       -0.058105         1    ;  uncertainty k = 0.253381
        28        34        38        39     9      180.000000       12.532833         2    ;  uncertainty k = 0.664664
        28        34        38        39     9        0.000000        1.588332         3    ;  uncertainty k = 0.317469
        28        34        38        39     9      180.000000        1.491709         4    ;  uncertainty k = 0.286719
        28        34        38        47     9        0.000000       -0.020922         1    ;  uncertainty k = 0.157047
        28        34        38        47     9      180.000000        9.170647         2    ;  uncertainty k = 0.439327
        28        34        38        47     9        0.000000       -0.195730         3    ;  uncertainty k = 0.474558
        28        34        38        47     9      180.000000        1.239476         4    ;  uncertainty k = 0.264396
        29        28        34        35     9        0.000000       -0.240771         1    ;  uncertainty k = 0.279190
        29        28        34        35     9      180.000000        8.519236         2    ;  uncertainty k = 0.364230
        29        28        34        35     9        0.000000        0.792415         3    ;  uncertainty k = 0.318593
        29        28        34        35     9      180.000000        0.989252         4    ;  uncertainty k = 0.224408
        29        28        34        38     9        0.000000       -0.058106         1    ;  uncertainty k = 0.253381
        29        28        34        38     9      180.000000       12.532832         2    ;  uncertainty k = 0.664665
        29        28        34        38     9        0.000000        1.588331         3    ;  uncertainty k = 0.317470
        29        28        34        38     9      180.000000        1.491709         4    ;  uncertainty k = 0.286719
        30        27        33        37     9        0.000000       -0.447426         1    ;  uncertainty k = 0.471404
        30        27        33        37     9      180.000000        2.405781         2    ;  uncertainty k = 0.427159
        30        27        33        37     9        0.000000        0.367598         3    ;  uncertainty k = 0.146032
        30        27        33        37     9      180.000000        0.190247         4    ;  uncertainty k = 0.061176
        30        27        33        59     9        0.000000       -0.443607         1    ;  uncertainty k = 0.458222
        30        27        33        59     9      180.000000        2.269368         2    ;  uncertainty k = 0.398225
        30        27        33        59     9        0.000000        0.429173         3    ;  uncertainty k = 0.138963
        30        27        33        59     9      180.000000        0.202420         4    ;  uncertainty k = 0.059461
        30        27        54        49     9        0.000000       -0.142798         1    ;  uncertainty k = 1.728686
        30        27        54        49     9      180.000000        0.916826         2    ;  uncertainty k = 0.343929
        30        27        54        49     9        0.000000        0.722540         3    ;  uncertainty k = 0.376946
        30        27        54        49     9      180.000000       -0.911695         4    ;  uncertainty k = 0.256878
        30        27        54        55     9        0.000000       -1.138658         1    ;  uncertainty k = 0.310936
        30        27        54        55     9      180.000000       -0.276772         2    ;  uncertainty k = 0.171409
        30        27        54        55     9        0.000000       -0.104417         3    ;  uncertainty k = 0.142239
        30        27        54        55     9      180.000000       -0.073598         4    ;  uncertainty k = 0.069647
        30        27        54        56     9        0.000000       -1.138658         1    ;  uncertainty k = 0.310936
        30        27        54        56     9      180.000000       -0.276772         2    ;  uncertainty k = 0.171409
        30        27        54        56     9        0.000000       -0.104417         3    ;  uncertainty k = 0.142239
        30        27        54        56     9      180.000000       -0.073598         4    ;  uncertainty k = 0.069647
        30        36        43        44     9        0.000000       -1.999805         1    ;  uncertainty k = 0.225318
        30        36        43        44     9      180.000000       -0.232324         2    ;  uncertainty k = 0.172198
        30        36        43        44     9        0.000000        0.488841         3    ;  uncertainty k = 0.205544
        30        36        43        44     9      180.000000       -0.107598         4    ;  uncertainty k = 0.052869
        30        36        43        45     9        0.000000       -1.999805         1    ;  uncertainty k = 0.225318
        30        36        43        45     9      180.000000       -0.232324         2    ;  uncertainty k = 0.172198
        30        36        43        45     9        0.000000        0.488841         3    ;  uncertainty k = 0.205544
        30        36        43        45     9      180.000000       -0.107598         4    ;  uncertainty k = 0.052869
        30        36        43        49     9        0.000000       -8.611498         1    ;  uncertainty k = 1.562644
        30        36        43        49     9      180.000000        1.369362         2    ;  uncertainty k = 0.438701
        30        36        43        49     9        0.000000        1.783440         3    ;  uncertainty k = 0.147500
        30        36        43        49     9      180.000000       -1.140308         4    ;  uncertainty k = 0.234597
        31        30        27        33     9        0.000000        1.044250         1    ;  uncertainty k = 0.668230
        31        30        27        33     9      180.000000       -0.185950         2    ;  uncertainty k = 0.465188
        31        30        27        33     9        0.000000        0.513283         3    ;  uncertainty k = 0.215876
        31        30        27        33     9      180.000000       -0.021455         4    ;  uncertainty k = 0.043586
        31        30        27        54     9        0.000000       -1.138660         1    ;  uncertainty k = 0.310936
        31        30        27        54     9      180.000000       -0.276771         2    ;  uncertainty k = 0.171408
        31        30        27        54     9        0.000000       -0.104417         3    ;  uncertainty k = 0.142240
        31        30        27        54     9      180.000000       -0.073598         4    ;  uncertainty k = 0.069648
        31        30        36        40     9        0.000000        1.865633         1    ;  uncertainty k = 0.151738
        31        30        36        40     9      180.000000       -0.051734         2    ;  uncertainty k = 0.121265
        31        30        36        40     9        0.000000        0.308088         3    ;  uncertainty k = 0.074080
        31        30        36        40     9      180.000000        0.151763         4    ;  uncertainty k = 0.037921
        31        30        36        41     9        0.000000        1.865633         1    ;  uncertainty k = 0.151738
        31        30        36        41     9      180.000000       -0.051734         2    ;  uncertainty k = 0.121265
        31        30        36        41     9        0.000000        0.308088         3    ;  uncertainty k = 0.074080
        31        30        36        41     9      180.000000        0.151763         4    ;  uncertainty k = 0.037921
        31        30        36        43     9        0.000000       -1.983969         1    ;  uncertainty k = 0.669414
        31        30        36        43     9      180.000000       -0.050872         2    ;  uncertainty k = 0.260863
        31        30        36        43     9        0.000000        0.508700         3    ;  uncertainty k = 0.104846
        31        30        36        43     9      180.000000       -0.031107         4    ;  uncertainty k = 0.060995
        32        30        27        33     9        0.000000        1.044250         1    ;  uncertainty k = 0.668230
        32        30        27        33     9      180.000000       -0.185950         2    ;  uncertainty k = 0.465188
        32        30        27        33     9        0.000000        0.513283         3    ;  uncertainty k = 0.215876
        32        30        27        33     9      180.000000       -0.021455         4    ;  uncertainty k = 0.043586
        32        30        27        54     9        0.000000       -1.138660         1    ;  uncertainty k = 0.310936
        32        30        27        54     9      180.000000       -0.276771         2    ;  uncertainty k = 0.171408
        32        30        27        54     9        0.000000       -0.104417         3    ;  uncertainty k = 0.142240
        32        30        27        54     9      180.000000       -0.073598         4    ;  uncertainty k = 0.069648
        32        30        36        40     9        0.000000        1.865633         1    ;  uncertainty k = 0.151738
        32        30        36        40     9      180.000000       -0.051734         2    ;  uncertainty k = 0.121265
        32        30        36        40     9        0.000000        0.308088         3    ;  uncertainty k = 0.074080
        32        30        36        40     9      180.000000        0.151763         4    ;  uncertainty k = 0.037921
        32        30        36        41     9        0.000000        1.865633         1    ;  uncertainty k = 0.151738
        32        30        36        41     9      180.000000       -0.051734         2    ;  uncertainty k = 0.121265
        32        30        36        41     9        0.000000        0.308088         3    ;  uncertainty k = 0.074080
        32        30        36        41     9      180.000000        0.151763         4    ;  uncertainty k = 0.037921
        32        30        36        43     9        0.000000       -1.983969         1    ;  uncertainty k = 0.669414
        32        30        36        43     9      180.000000       -0.050872         2    ;  uncertainty k = 0.260863
        32        30        36        43     9        0.000000        0.508700         3    ;  uncertainty k = 0.104846
        32        30        36        43     9      180.000000       -0.031107         4    ;  uncertainty k = 0.060995
        33        27        30        36     9        0.000000       -2.374491         1    ;  uncertainty k = 0.965011
        33        27        30        36     9      180.000000        0.769515         2    ;  uncertainty k = 0.294631
        33        27        30        36     9        0.000000        0.844040         3    ;  uncertainty k = 0.254340
        33        27        30        36     9      180.000000       -0.085902         4    ;  uncertainty k = 0.080334
        33        27        54        49     9        0.000000       -2.374491         1    ;  uncertainty k = 0.965012
        33        27        54        49     9      180.000000        0.769513         2    ;  uncertainty k = 0.294631
        33        27        54        49     9        0.000000        0.844041         3    ;  uncertainty k = 0.254340
        33        27        54        49     9      180.000000       -0.085902         4    ;  uncertainty k = 0.080333
        33        27        54        55     9        0.000000        1.044249         1    ;  uncertainty k = 0.668228
        33        27        54        55     9      180.000000       -0.185950         2    ;  uncertainty k = 0.465187
        33        27        54        55     9        0.000000        0.513283         3    ;  uncertainty k = 0.215876
        33        27        54        55     9      180.000000       -0.021455         4    ;  uncertainty k = 0.043586
        33        27        54        56     9        0.000000        1.044249         1    ;  uncertainty k = 0.668228
        33        27        54        56     9      180.000000       -0.185950         2    ;  uncertainty k = 0.465187
        33        27        54        56     9        0.000000        0.513283         3    ;  uncertainty k = 0.215876
        33        27        54        56     9      180.000000       -0.021455         4    ;  uncertainty k = 0.043586
        33        37        46        52     9        0.000000       -0.057474         1    ;  uncertainty k = 0.324532
        33        37        46        52     9      180.000000       10.247191         2    ;  uncertainty k = 0.179774
        33        37        46        52     9        0.000000       -0.140214         3    ;  uncertainty k = 0.425102
        33        37        46        52     9      180.000000        0.981066         4    ;  uncertainty k = 0.358934
        33        37        46        61     9        0.000000       -0.151981         1    ;  uncertainty k = 0.216335
        33        37        46        61     9      180.000000        9.009043         2    ;  uncertainty k = 0.362712
        33        37        46        61     9        0.000000        1.401003         3    ;  uncertainty k = 0.413566
        33        37        46        61     9      180.000000        1.741951         4    ;  uncertainty k = 0.195314
        33        59        57        52     9        0.000000        0.022830         1    ;  uncertainty k = 0.293574
        33        59        57        52     9      180.000000       13.800568         2    ;  uncertainty k = 0.265077
        33        59        57        52     9        0.000000       -0.927092         3    ;  uncertainty k = 0.450619
        33        59        57        52     9      180.000000        0.701451         4    ;  uncertainty k = 0.250728
        33        59        57        58     9        0.000000        0.028451         1    ;  uncertainty k = 0.313407
        33        59        57        58     9      180.000000        7.418035         2    ;  uncertainty k = 0.259474
        33        59        57        58     9        0.000000        1.491113         3    ;  uncertainty k = 0.217517
        33        59        57        58     9      180.000000        1.740474         4    ;  uncertainty k = 0.104259
        34        38        47        48     9        0.000000        0.000250         1    ;  uncertainty k = 0.206465
        34        38        47        48     9      180.000000        5.882345         2    ;  uncertainty k = 0.714480
        34        38        47        48     9        0.000000        1.305115         3    ;  uncertainty k = 0.360334
        34        38        47        48     9      180.000000        1.568343         4    ;  uncertainty k = 0.171880
        35        34        38        39     9        0.000000       -0.240771         1    ;  uncertainty k = 0.279191
        35        34        38        39     9      180.000000        8.519234         2    ;  uncertainty k = 0.364229
        35        34        38        39     9        0.000000        0.792415         3    ;  uncertainty k = 0.318594
        35        34        38        39     9      180.000000        0.989252         4    ;  uncertainty k = 0.224408
        35        34        38        47     9        0.000000        0.113274         1    ;  uncertainty k = 0.163887
        35        34        38        47     9      180.000000        5.570070         2    ;  uncertainty k = 0.658049
        35        34        38        47     9        0.000000        1.285225         3    ;  uncertainty k = 0.310395
        35        34        38        47     9      180.000000        1.458916         4    ;  uncertainty k = 0.148553
        36        30        27        54     9        0.000000       -0.142798         1    ;  uncertainty k = 1.728685
        36        30        27        54     9      180.000000        0.916826         2    ;  uncertainty k = 0.343929
        36        30        27        54     9        0.000000        0.722540         3    ;  uncertainty k = 0.376945
        36        30        27        54     9      180.000000       -0.911694         4    ;  uncertainty k = 0.256878
        36        43        49        50     9        0.000000       -1.682033         1    ;  uncertainty k = 0.270101
        36        43        49        50     9      180.000000       -0.450516         2    ;  uncertainty k = 0.170394
        36        43        49        50     9        0.000000        0.426110         3    ;  uncertainty k = 0.085850
        36        43        49        50     9      180.000000       -0.018605         4    ;  uncertainty k = 0.047628
        36        43        49        51     9        0.000000       -1.682033         1    ;  uncertainty k = 0.270101
        36        43        49        51     9      180.000000       -0.450516         2    ;  uncertainty k = 0.170394
        36        43        49        51     9        0.000000        0.426110         3    ;  uncertainty k = 0.085850
        36        43        49        51     9      180.000000       -0.018605         4    ;  uncertainty k = 0.047628
        36        43        49        54     9        0.000000       -8.611498         1    ;  uncertainty k = 1.562641
        36        43        49        54     9      180.000000        1.369361         2    ;  uncertainty k = 0.438702
        36        43        49        54     9        0.000000        1.783440         3    ;  uncertainty k = 0.147501
        36        43        49        54     9      180.000000       -1.140309         4    ;  uncertainty k = 0.234597
        37        33        27        54     9        0.000000       -0.447426         1    ;  uncertainty k = 0.471403
        37        33        27        54     9      180.000000        2.405780         2    ;  uncertainty k = 0.427160
        37        33        27        54     9        0.000000        0.367598         3    ;  uncertainty k = 0.146033
        37        33        27        54     9      180.000000        0.190247         4    ;  uncertainty k = 0.061176
        37        33        59        57     9        0.000000       -0.222685         1    ;  uncertainty k = 0.309008
        37        33        59        57     9      180.000000       12.344401         2    ;  uncertainty k = 0.430461
        37        33        59        57     9        0.000000       -0.514224         3    ;  uncertainty k = 0.264605
        37        33        59        57     9      180.000000        0.845190         4    ;  uncertainty k = 0.285175
        37        33        59        60     9        0.000000        0.096692         1    ;  uncertainty k = 0.099540
        37        33        59        60     9      180.000000        7.542227         2    ;  uncertainty k = 0.509392
        37        33        59        60     9        0.000000        1.433987         3    ;  uncertainty k = 0.325735
        37        33        59        60     9      180.000000        1.633261         4    ;  uncertainty k = 0.178288
        37        46        52        53     9        0.000000        0.166873         1    ;  uncertainty k = 0.204910
        37        46        52        53     9      180.000000        7.308787         2    ;  uncertainty k = 0.252231
        37        46        52        53     9        0.000000        1.519683         3    ;  uncertainty k = 0.387147
        37        46        52        53     9      180.000000        1.581488         4    ;  uncertainty k = 0.117212
        37        46        52        57     9        0.000000       -0.260468         1    ;  uncertainty k = 0.237723
        37        46        52        57     9      180.000000       11.354917         2    ;  uncertainty k = 0.283020
        37        46        52        57     9        0.000000       -0.329475         3    ;  uncertainty k = 0.291849
        37        46        52        57     9      180.000000        0.854405         4    ;  uncertainty k = 0.328362
        37        46        61        62     9        0.000000       -0.169248         1    ;  uncertainty k = 0.342101
        37        46        61        62     9      180.000000        2.446738         2    ;  uncertainty k = 0.303733
        37        46        61        62     9        0.000000        0.297661         3    ;  uncertainty k = 0.103711
        37        46        61        62     9      180.000000        0.292349         4    ;  uncertainty k = 0.068503
        37        46        61        65     9        0.000000       -0.169248         1    ;  uncertainty k = 0.342101
        37        46        61        65     9      180.000000        2.446738         2    ;  uncertainty k = 0.303733
        37        46        61        65     9        0.000000        0.297661         3    ;  uncertainty k = 0.103711
        37        46        61        65     9      180.000000        0.292349         4    ;  uncertainty k = 0.068503
        37        46        61        66     9        0.000000       -0.003539         1    ;  uncertainty k = 0.218169
        37        46        61        66     9      180.000000        1.828978         2    ;  uncertainty k = 0.254681
        37        46        61        66     9        0.000000        0.433248         3    ;  uncertainty k = 0.178570
        37        46        61        66     9      180.000000        0.298828         4    ;  uncertainty k = 0.055411
        39        38        47        48     9        0.000000       -0.338324         1    ;  uncertainty k = 0.125407
        39        38        47        48     9      180.000000        9.023857         2    ;  uncertainty k = 0.342386
        39        38        47        48     9        0.000000        0.780162         3    ;  uncertainty k = 0.283675
        39        38        47        48     9      180.000000        0.968908         4    ;  uncertainty k = 0.220959
        40        36        43        44     9        0.000000        2.507999         1    ;  uncertainty k = 0.657804
        40        36        43        44     9      180.000000       -0.113206         2    ;  uncertainty k = 0.041036
        40        36        43        44     9        0.000000        0.237190         3    ;  uncertainty k = 0.141933
        40        36        43        44     9      180.000000        0.113988         4    ;  uncertainty k = 0.030644
        40        36        43        45     9        0.000000        2.507999         1    ;  uncertainty k = 0.657804
        40        36        43        45     9      180.000000       -0.113206         2    ;  uncertainty k = 0.041036
        40        36        43        45     9        0.000000        0.237190         3    ;  uncertainty k = 0.141933
        40        36        43        45     9      180.000000        0.113988         4    ;  uncertainty k = 0.030644
        40        36        43        49     9        0.000000       -1.682034         1    ;  uncertainty k = 0.270102
        40        36        43        49     9      180.000000       -0.450514         2    ;  uncertainty k = 0.170395
        40        36        43        49     9        0.000000        0.426110         3    ;  uncertainty k = 0.085850
        40        36        43        49     9      180.000000       -0.018604         4    ;  uncertainty k = 0.047629
        41        36        43        44     9        0.000000        2.507999         1    ;  uncertainty k = 0.657804
        41        36        43        44     9      180.000000       -0.113206         2    ;  uncertainty k = 0.041036
        41        36        43        44     9        0.000000        0.237190         3    ;  uncertainty k = 0.141933
        41        36        43        44     9      180.000000        0.113988         4    ;  uncertainty k = 0.030644
        41        36        43        45     9        0.000000        2.507999         1    ;  uncertainty k = 0.657804
        41        36        43        45     9      180.000000       -0.113206         2    ;  uncertainty k = 0.041036
        41        36        43        45     9        0.000000        0.237190         3    ;  uncertainty k = 0.141933
        41        36        43        45     9      180.000000        0.113988         4    ;  uncertainty k = 0.030644
        41        36        43        49     9        0.000000       -1.682034         1    ;  uncertainty k = 0.270102
        41        36        43        49     9      180.000000       -0.450514         2    ;  uncertainty k = 0.170395
        41        36        43        49     9        0.000000        0.426110         3    ;  uncertainty k = 0.085850
        41        36        43        49     9      180.000000       -0.018604         4    ;  uncertainty k = 0.047629
        42        37        33        59     9        0.000000        0.070016         1    ;  uncertainty k = 0.059623
        42        37        33        59     9      180.000000        7.813579         2    ;  uncertainty k = 0.465950
        42        37        33        59     9        0.000000        1.460138         3    ;  uncertainty k = 0.302710
        42        37        33        59     9      180.000000        1.619735         4    ;  uncertainty k = 0.190291
        42        37        46        52     9        0.000000       -0.060808         1    ;  uncertainty k = 0.203075
        42        37        46        52     9      180.000000        7.536472         2    ;  uncertainty k = 0.489382
        42        37        46        52     9        0.000000        1.479294         3    ;  uncertainty k = 0.270971
        42        37        46        52     9      180.000000        1.661253         4    ;  uncertainty k = 0.186549
        42        37        46        61     9        0.000000       -0.289540         1    ;  uncertainty k = 0.210288
        42        37        46        61     9      180.000000        8.137244         2    ;  uncertainty k = 0.190628
        42        37        46        61     9        0.000000        0.663876         3    ;  uncertainty k = 0.260436
        42        37        46        61     9      180.000000        1.104238         4    ;  uncertainty k = 0.176414
        43        49        54        55     9        0.000000       -1.983969         1    ;  uncertainty k = 0.669418
        43        49        54        55     9      180.000000       -0.050871         2    ;  uncertainty k = 0.260863
        43        49        54        55     9        0.000000        0.508699         3    ;  uncertainty k = 0.104846
        43        49        54        55     9      180.000000       -0.031107         4    ;  uncertainty k = 0.060996
        43        49        54        56     9        0.000000       -1.983969         1    ;  uncertainty k = 0.669418
        43        49        54        56     9      180.000000       -0.050871         2    ;  uncertainty k = 0.260863
        43        49        54        56     9        0.000000        0.508699         3    ;  uncertainty k = 0.104846
        43        49        54        56     9      180.000000       -0.031107         4    ;  uncertainty k = 0.060996
        44        43        49        50     9        0.000000        2.507999         1    ;  uncertainty k = 0.657804
        44        43        49        50     9      180.000000       -0.113205         2    ;  uncertainty k = 0.041036
        44        43        49        50     9        0.000000        0.237190         3    ;  uncertainty k = 0.141933
        44        43        49        50     9      180.000000        0.113988         4    ;  uncertainty k = 0.030644
        44        43        49        51     9        0.000000        2.507999         1    ;  uncertainty k = 0.657804
        44        43        49        51     9      180.000000       -0.113205         2    ;  uncertainty k = 0.041036
        44        43        49        51     9        0.000000        0.237190         3    ;  uncertainty k = 0.141933
        44        43        49        51     9      180.000000        0.113988         4    ;  uncertainty k = 0.030644
        44        43        49        54     9        0.000000       -1.999804         1    ;  uncertainty k = 0.225317
        44        43        49        54     9      180.000000       -0.232323         2    ;  uncertainty k = 0.172197
        44        43        49        54     9        0.000000        0.488841         3    ;  uncertainty k = 0.205544
        44        43        49        54     9      180.000000       -0.107597         4    ;  uncertainty k = 0.052869
        45        43        49        50     9        0.000000        2.507999         1    ;  uncertainty k = 0.657804
        45        43        49        50     9      180.000000       -0.113205         2    ;  uncertainty k = 0.041036
        45        43        49        50     9        0.000000        0.237190         3    ;  uncertainty k = 0.141933
        45        43        49        50     9      180.000000        0.113988         4    ;  uncertainty k = 0.030644
        45        43        49        51     9        0.000000        2.507999         1    ;  uncertainty k = 0.657804
        45        43        49        51     9      180.000000       -0.113205         2    ;  uncertainty k = 0.041036
        45        43        49        51     9        0.000000        0.237190         3    ;  uncertainty k = 0.141933
        45        43        49        51     9      180.000000        0.113988         4    ;  uncertainty k = 0.030644
        45        43        49        54     9        0.000000       -1.999804         1    ;  uncertainty k = 0.225317
        45        43        49        54     9      180.000000       -0.232323         2    ;  uncertainty k = 0.172197
        45        43        49        54     9        0.000000        0.488841         3    ;  uncertainty k = 0.205544
        45        43        49        54     9      180.000000       -0.107597         4    ;  uncertainty k = 0.052869
        46        37        33        59     9        0.000000       -0.309104         1    ;  uncertainty k = 0.323265
        46        37        33        59     9      180.000000       11.394892         2    ;  uncertainty k = 0.171809
        46        37        33        59     9        0.000000       -0.253444         3    ;  uncertainty k = 0.283893
        46        37        33        59     9      180.000000        0.952812         4    ;  uncertainty k = 0.295937
        46        52        57        58     9        0.000000        0.064319         1    ;  uncertainty k = 0.190520
        46        52        57        58     9      180.000000        7.427584         2    ;  uncertainty k = 0.330049
        46        52        57        58     9        0.000000        1.457005         3    ;  uncertainty k = 0.232686
        46        52        57        58     9      180.000000        1.823325         4    ;  uncertainty k = 0.142085
        46        52        57        59     9        0.000000       -0.094676         1    ;  uncertainty k = 0.216967
        46        52        57        59     9      180.000000       13.783977         2    ;  uncertainty k = 0.285334
        46        52        57        59     9        0.000000       -0.987298         3    ;  uncertainty k = 0.492534
        46        52        57        59     9      180.000000        0.678163         4    ;  uncertainty k = 0.279844
        46        61        62        63     9        0.000000       -3.555114         1    ;  uncertainty k = 0.809933
        46        61        62        63     9      180.000000        0.738542         2    ;  uncertainty k = 0.405308
        46        61        62        63     9        0.000000        1.302348         3    ;  uncertainty k = 0.232681
        46        61        62        63     9      180.000000       -0.056504         4    ;  uncertainty k = 0.143197
        46        61        62        67     9        0.000000        0.971374         1    ;  uncertainty k = 0.512854
        46        61        62        67     9      180.000000        0.174012         2    ;  uncertainty k = 0.112081
        46        61        62        67     9        0.000000        1.102247         3    ;  uncertainty k = 0.123417
        46        61        62        67     9      180.000000        0.112209         4    ;  uncertainty k = 0.024373
        46        61        62        68     9        0.000000        0.971374         1    ;  uncertainty k = 0.512854
        46        61        62        68     9      180.000000        0.174012         2    ;  uncertainty k = 0.112081
        46        61        62        68     9        0.000000        1.102247         3    ;  uncertainty k = 0.123417
        46        61        62        68     9      180.000000        0.112209         4    ;  uncertainty k = 0.024373
        46        61        65        64     9        0.000000       -3.555114         1    ;  uncertainty k = 0.809933
        46        61        65        64     9      180.000000        0.738542         2    ;  uncertainty k = 0.405308
        46        61        65        64     9        0.000000        1.302348         3    ;  uncertainty k = 0.232681
        46        61        65        64     9      180.000000       -0.056504         4    ;  uncertainty k = 0.143197
        46        61        65        73     9        0.000000        0.971374         1    ;  uncertainty k = 0.512854
        46        61        65        73     9      180.000000        0.174012         2    ;  uncertainty k = 0.112081
        46        61        65        73     9        0.000000        1.102247         3    ;  uncertainty k = 0.123417
        46        61        65        73     9      180.000000        0.112209         4    ;  uncertainty k = 0.024373
        46        61        65        74     9        0.000000        0.971374         1    ;  uncertainty k = 0.512854
        46        61        65        74     9      180.000000        0.174012         2    ;  uncertainty k = 0.112081
        46        61        65        74     9        0.000000        1.102247         3    ;  uncertainty k = 0.123417
        46        61        65        74     9      180.000000        0.112209         4    ;  uncertainty k = 0.024373
        50        49        54        55     9        0.000000        1.865633         1    ;  uncertainty k = 0.151738
        50        49        54        55     9      180.000000       -0.051734         2    ;  uncertainty k = 0.121264
        50        49        54        55     9        0.000000        0.308088         3    ;  uncertainty k = 0.074079
        50        49        54        55     9      180.000000        0.151763         4    ;  uncertainty k = 0.037921
        50        49        54        56     9        0.000000        1.865633         1    ;  uncertainty k = 0.151738
        50        49        54        56     9      180.000000       -0.051734         2    ;  uncertainty k = 0.121264
        50        49        54        56     9        0.000000        0.308088         3    ;  uncertainty k = 0.074079
        50        49        54        56     9      180.000000        0.151763         4    ;  uncertainty k = 0.037921
        51        49        54        55     9        0.000000        1.865633         1    ;  uncertainty k = 0.151738
        51        49        54        55     9      180.000000       -0.051734         2    ;  uncertainty k = 0.121264
        51        49        54        55     9        0.000000        0.308088         3    ;  uncertainty k = 0.074079
        51        49        54        55     9      180.000000        0.151763         4    ;  uncertainty k = 0.037921
        51        49        54        56     9        0.000000        1.865633         1    ;  uncertainty k = 0.151738
        51        49        54        56     9      180.000000       -0.051734         2    ;  uncertainty k = 0.121264
        51        49        54        56     9        0.000000        0.308088         3    ;  uncertainty k = 0.074079
        51        49        54        56     9      180.000000        0.151763         4    ;  uncertainty k = 0.037921
        52        46        61        62     9        0.000000       -0.181841         1    ;  uncertainty k = 0.259552
        52        46        61        62     9      180.000000        2.292476         2    ;  uncertainty k = 0.288600
        52        46        61        62     9        0.000000        0.383973         3    ;  uncertainty k = 0.096799
        52        46        61        62     9      180.000000        0.291028         4    ;  uncertainty k = 0.048168
        52        46        61        65     9        0.000000       -0.181841         1    ;  uncertainty k = 0.259552
        52        46        61        65     9      180.000000        2.292476         2    ;  uncertainty k = 0.288600
        52        46        61        65     9        0.000000        0.383973         3    ;  uncertainty k = 0.096799
        52        46        61        65     9      180.000000        0.291028         4    ;  uncertainty k = 0.048168
        52        46        61        66     9        0.000000       -0.363354         1    ;  uncertainty k = 0.256800
        52        46        61        66     9      180.000000        1.871448         2    ;  uncertainty k = 0.214646
        52        46        61        66     9        0.000000        0.489695         3    ;  uncertainty k = 0.148788
        52        46        61        66     9      180.000000        0.274774         4    ;  uncertainty k = 0.044273
        52        57        59        60     9        0.000000        0.023106         1    ;  uncertainty k = 0.078223
        52        57        59        60     9      180.000000        7.906164         2    ;  uncertainty k = 0.290440
        52        57        59        60     9        0.000000        1.353791         3    ;  uncertainty k = 0.250207
        52        57        59        60     9      180.000000        1.818572         4    ;  uncertainty k = 0.133823
        53        52        46        61     9        0.000000       -0.197914         1    ;  uncertainty k = 0.152972
        53        52        46        61     9      180.000000        7.926418         2    ;  uncertainty k = 0.172697
        53        52        46        61     9        0.000000        0.669621         3    ;  uncertainty k = 0.258874
        53        52        46        61     9      180.000000        0.996917         4    ;  uncertainty k = 0.105655
        53        52        57        58     9        0.000000       -0.059898         1    ;  uncertainty k = 0.087061
        53        52        57        58     9      180.000000        7.969560         2    ;  uncertainty k = 0.256138
        53        52        57        58     9        0.000000       -0.487183         3    ;  uncertainty k = 0.266978
        53        52        57        58     9      180.000000        0.083737         4    ;  uncertainty k = 0.132037
        53        52        57        59     9        0.000000        0.124454         1    ;  uncertainty k = 0.143365
        53        52        57        59     9      180.000000        7.805159         2    ;  uncertainty k = 0.211293
        53        52        57        59     9        0.000000        1.464681         3    ;  uncertainty k = 0.263883
        53        52        57        59     9      180.000000        1.819832         4    ;  uncertainty k = 0.220646
        54        27        33        59     9        0.000000       -0.443609         1    ;  uncertainty k = 0.458222
        54        27        33        59     9      180.000000        2.269368         2    ;  uncertainty k = 0.398223
        54        27        33        59     9        0.000000        0.429173         3    ;  uncertainty k = 0.138963
        54        27        33        59     9      180.000000        0.202420         4    ;  uncertainty k = 0.059461
        57        52        46        61     9        0.000000        0.201853         1    ;  uncertainty k = 0.542400
        57        52        46        61     9      180.000000        9.135600         2    ;  uncertainty k = 0.406689
        57        52        46        61     9        0.000000        1.473771         3    ;  uncertainty k = 0.424220
        57        52        46        61     9      180.000000        1.863547         4    ;  uncertainty k = 0.191366
        58        57        59        60     9        0.000000       -0.037470         1    ;  uncertainty k = 0.330194
        58        57        59        60     9      180.000000        8.028729         2    ;  uncertainty k = 0.336763
        58        57        59        60     9        0.000000       -0.452268         3    ;  uncertainty k = 0.306903
        58        57        59        60     9      180.000000        0.182822         4    ;  uncertainty k = 0.172193
        61        62        63        64     9        0.000000       -1.800846         1    ;  uncertainty k = 1.515958
        61        62        63        64     9      180.000000        5.790257         2    ;  uncertainty k = 0.331387
        61        62        63        64     9        0.000000        0.313457         3    ;  uncertainty k = 0.439700
        61        62        63        64     9      180.000000       -2.044231         4    ;  uncertainty k = 0.207771
        61        62        63        69     9        0.000000       -1.058099         1    ;  uncertainty k = 0.606180
        61        62        63        69     9      180.000000       -0.396964         2    ;  uncertainty k = 0.182827
        61        62        63        69     9        0.000000        0.690891         3    ;  uncertainty k = 0.177649
        61        62        63        69     9      180.000000        0.213812         4    ;  uncertainty k = 0.073538
        61        62        63        70     9        0.000000       -1.058099         1    ;  uncertainty k = 0.606180
        61        62        63        70     9      180.000000       -0.396964         2    ;  uncertainty k = 0.182827
        61        62        63        70     9        0.000000        0.690891         3    ;  uncertainty k = 0.177649
        61        62        63        70     9      180.000000        0.213812         4    ;  uncertainty k = 0.073538
        61        65        64        63     9        0.000000       -1.800846         1    ;  uncertainty k = 1.515958
        61        65        64        63     9      180.000000        5.790257         2    ;  uncertainty k = 0.331387
        61        65        64        63     9        0.000000        0.313457         3    ;  uncertainty k = 0.439700
        61        65        64        63     9      180.000000       -2.044231         4    ;  uncertainty k = 0.207771
        61        65        64        71     9        0.000000       -1.058099         1    ;  uncertainty k = 0.606180
        61        65        64        71     9      180.000000       -0.396964         2    ;  uncertainty k = 0.182827
        61        65        64        71     9        0.000000        0.690891         3    ;  uncertainty k = 0.177649
        61        65        64        71     9      180.000000        0.213812         4    ;  uncertainty k = 0.073538
        61        65        64        72     9        0.000000       -1.058099         1    ;  uncertainty k = 0.606180
        61        65        64        72     9      180.000000       -0.396964         2    ;  uncertainty k = 0.182827
        61        65        64        72     9        0.000000        0.690891         3    ;  uncertainty k = 0.177649
        61        65        64        72     9      180.000000        0.213812         4    ;  uncertainty k = 0.073538
        62        61        65        64     9        0.000000       -1.179698         1    ;  uncertainty k = 1.543633
        62        61        65        64     9      180.000000        4.852255         2    ;  uncertainty k = 1.257518
        62        61        65        64     9        0.000000        0.311681         3    ;  uncertainty k = 0.400334
        62        61        65        64     9      180.000000       -1.459331         4    ;  uncertainty k = 0.217338
        62        61        65        73     9        0.000000       -1.539321         1    ;  uncertainty k = 0.562982
        62        61        65        73     9      180.000000        0.087838         2    ;  uncertainty k = 0.210449
        62        61        65        73     9        0.000000        0.683569         3    ;  uncertainty k = 0.105956
        62        61        65        73     9      180.000000        0.131925         4    ;  uncertainty k = 0.054051
        62        61        65        74     9        0.000000       -1.539321         1    ;  uncertainty k = 0.562982
        62        61        65        74     9      180.000000        0.087838         2    ;  uncertainty k = 0.210449
        62        61        65        74     9        0.000000        0.683569         3    ;  uncertainty k = 0.105956
        62        61        65        74     9      180.000000        0.131925         4    ;  uncertainty k = 0.054051
        62        63        64        65     9        0.000000       -2.662915         1    ;  uncertainty k = 1.779360
        62        63        64        65     9      180.000000        5.569809         2    ;  uncertainty k = 0.565580
        62        63        64        65     9        0.000000        0.352961         3    ;  uncertainty k = 0.439348
        62        63        64        65     9      180.000000       -2.046207         4    ;  uncertainty k = 0.111201
        62        63        64        71     9        0.000000       -1.711922         1    ;  uncertainty k = 0.480525
        62        63        64        71     9      180.000000       -0.200024         2    ;  uncertainty k = 0.154207
        62        63        64        71     9        0.000000        0.837267         3    ;  uncertainty k = 0.192060
        62        63        64        71     9      180.000000        0.179184         4    ;  uncertainty k = 0.087224
        62        63        64        72     9        0.000000       -1.711922         1    ;  uncertainty k = 0.480525
        62        63        64        72     9      180.000000       -0.200024         2    ;  uncertainty k = 0.154207
        62        63        64        72     9        0.000000        0.837267         3    ;  uncertainty k = 0.192060
        62        63        64        72     9      180.000000        0.179184         4    ;  uncertainty k = 0.087224
        63        62        61        65     9        0.000000       -1.179698         1    ;  uncertainty k = 1.543633
        63        62        61        65     9      180.000000        4.852255         2    ;  uncertainty k = 1.257518
        63        62        61        65     9        0.000000        0.311681         3    ;  uncertainty k = 0.400334
        63        62        61        65     9      180.000000       -1.459331         4    ;  uncertainty k = 0.217338
        63        62        61        66     9        0.000000       -2.217350         1    ;  uncertainty k = 0.842194
        63        62        61        66     9      180.000000        0.802685         2    ;  uncertainty k = 0.190413
        63        62        61        66     9        0.000000        0.840708         3    ;  uncertainty k = 0.119350
        63        62        61        66     9      180.000000        0.097748         4    ;  uncertainty k = 0.061084
        63        64        65        73     9        0.000000       -1.783936         1    ;  uncertainty k = 0.525005
        63        64        65        73     9      180.000000       -0.101726         2    ;  uncertainty k = 0.157915
        63        64        65        73     9        0.000000        0.918350         3    ;  uncertainty k = 0.175118
        63        64        65        73     9      180.000000        0.193469         4    ;  uncertainty k = 0.100449
        63        64        65        74     9        0.000000       -1.783936         1    ;  uncertainty k = 0.525005
        63        64        65        74     9      180.000000       -0.101726         2    ;  uncertainty k = 0.157915
        63        64        65        74     9        0.000000        0.918350         3    ;  uncertainty k = 0.175118
        63        64        65        74     9      180.000000        0.193469         4    ;  uncertainty k = 0.100449
        64        63        62        67     9        0.000000       -1.783936         1    ;  uncertainty k = 0.525005
        64        63        62        67     9      180.000000       -0.101726         2    ;  uncertainty k = 0.157915
        64        63        62        67     9        0.000000        0.918350         3    ;  uncertainty k = 0.175118
        64        63        62        67     9      180.000000        0.193469         4    ;  uncertainty k = 0.100449
        64        63        62        68     9        0.000000       -1.783936         1    ;  uncertainty k = 0.525005
        64        63        62        68     9      180.000000       -0.101726         2    ;  uncertainty k = 0.157915
        64        63        62        68     9        0.000000        0.918350         3    ;  uncertainty k = 0.175118
        64        63        62        68     9      180.000000        0.193469         4    ;  uncertainty k = 0.100449
        64        65        61        66     9        0.000000       -2.217350         1    ;  uncertainty k = 0.842194
        64        65        61        66     9      180.000000        0.802685         2    ;  uncertainty k = 0.190413
        64        65        61        66     9        0.000000        0.840708         3    ;  uncertainty k = 0.119350
        64        65        61        66     9      180.000000        0.097748         4    ;  uncertainty k = 0.061084
        65        61        62        67     9        0.000000       -1.539321         1    ;  uncertainty k = 0.562982
        65        61        62        67     9      180.000000        0.087838         2    ;  uncertainty k = 0.210449
        65        61        62        67     9        0.000000        0.683569         3    ;  uncertainty k = 0.105956
        65        61        62        67     9      180.000000        0.131925         4    ;  uncertainty k = 0.054051
        65        61        62        68     9        0.000000       -1.539321         1    ;  uncertainty k = 0.562982
        65        61        62        68     9      180.000000        0.087838         2    ;  uncertainty k = 0.210449
        65        61        62        68     9        0.000000        0.683569         3    ;  uncertainty k = 0.105956
        65        61        62        68     9      180.000000        0.131925         4    ;  uncertainty k = 0.054051
        65        64        63        69     9        0.000000       -1.711922         1    ;  uncertainty k = 0.480525
        65        64        63        69     9      180.000000       -0.200024         2    ;  uncertainty k = 0.154207
        65        64        63        69     9        0.000000        0.837267         3    ;  uncertainty k = 0.192060
        65        64        63        69     9      180.000000        0.179184         4    ;  uncertainty k = 0.087224
        65        64        63        70     9        0.000000       -1.711922         1    ;  uncertainty k = 0.480525
        65        64        63        70     9      180.000000       -0.200024         2    ;  uncertainty k = 0.154207
        65        64        63        70     9        0.000000        0.837267         3    ;  uncertainty k = 0.192060
        65        64        63        70     9      180.000000        0.179184         4    ;  uncertainty k = 0.087224
        66        61        62        67     9        0.000000        1.373842         1    ;  uncertainty k = 0.297537
        66        61        62        67     9      180.000000       -0.610049         2    ;  uncertainty k = 0.171824
        66        61        62        67     9        0.000000        0.598379         3    ;  uncertainty k = 0.030702
        66        61        62        67     9      180.000000        0.159690         4    ;  uncertainty k = 0.052638
        66        61        62        68     9        0.000000        1.373842         1    ;  uncertainty k = 0.297537
        66        61        62        68     9      180.000000       -0.610049         2    ;  uncertainty k = 0.171824
        66        61        62        68     9        0.000000        0.598379         3    ;  uncertainty k = 0.030702
        66        61        62        68     9      180.000000        0.159690         4    ;  uncertainty k = 0.052638
        66        61        65        73     9        0.000000        1.373842         1    ;  uncertainty k = 0.297537
        66        61        65        73     9      180.000000       -0.610049         2    ;  uncertainty k = 0.171824
        66        61        65        73     9        0.000000        0.598379         3    ;  uncertainty k = 0.030702
        66        61        65        73     9      180.000000        0.159690         4    ;  uncertainty k = 0.052638
        66        61        65        74     9        0.000000        1.373842         1    ;  uncertainty k = 0.297537
        66        61        65        74     9      180.000000       -0.610049         2    ;  uncertainty k = 0.171824
        66        61        65        74     9        0.000000        0.598379         3    ;  uncertainty k = 0.030702
        66        61        65        74     9      180.000000        0.159690         4    ;  uncertainty k = 0.052638
        67        62        63        69     9        0.000000        1.636398         1    ;  uncertainty k = 0.439311
        67        62        63        69     9      180.000000       -0.089671         2    ;  uncertainty k = 0.089727
        67        62        63        69     9        0.000000        0.857660         3    ;  uncertainty k = 0.096594
        67        62        63        69     9      180.000000        0.074359         4    ;  uncertainty k = 0.038126
        67        62        63        70     9        0.000000        1.636398         1    ;  uncertainty k = 0.439311
        67        62        63        70     9      180.000000       -0.089671         2    ;  uncertainty k = 0.089727
        67        62        63        70     9        0.000000        0.857660         3    ;  uncertainty k = 0.096594
        67        62        63        70     9      180.000000        0.074359         4    ;  uncertainty k = 0.038126
        68        62        63        69     9        0.000000        1.636398         1    ;  uncertainty k = 0.439311
        68        62        63        69     9      180.000000       -0.089671         2    ;  uncertainty k = 0.089727
        68        62        63        69     9        0.000000        0.857660         3    ;  uncertainty k = 0.096594
        68        62        63        69     9      180.000000        0.074359         4    ;  uncertainty k = 0.038126
        68        62        63        70     9        0.000000        1.636398         1    ;  uncertainty k = 0.439311
        68        62        63        70     9      180.000000       -0.089671         2    ;  uncertainty k = 0.089727
        68        62        63        70     9        0.000000        0.857660         3    ;  uncertainty k = 0.096594
        68        62        63        70     9      180.000000        0.074359         4    ;  uncertainty k = 0.038126
        69        63        64        71     9        0.000000        1.562514         1    ;  uncertainty k = 0.393780
        69        63        64        71     9      180.000000       -0.059819         2    ;  uncertainty k = 0.102783
        69        63        64        71     9        0.000000        0.858414         3    ;  uncertainty k = 0.117522
        69        63        64        71     9      180.000000        0.076342         4    ;  uncertainty k = 0.040366
        69        63        64        72     9        0.000000        1.562514         1    ;  uncertainty k = 0.393780
        69        63        64        72     9      180.000000       -0.059819         2    ;  uncertainty k = 0.102783
        69        63        64        72     9        0.000000        0.858414         3    ;  uncertainty k = 0.117522
        69        63        64        72     9      180.000000        0.076342         4    ;  uncertainty k = 0.040366
        70        63        64        71     9        0.000000        1.562514         1    ;  uncertainty k = 0.393780
        70        63        64        71     9      180.000000       -0.059819         2    ;  uncertainty k = 0.102783
        70        63        64        71     9        0.000000        0.858414         3    ;  uncertainty k = 0.117522
        70        63        64        71     9      180.000000        0.076342         4    ;  uncertainty k = 0.040366
        70        63        64        72     9        0.000000        1.562514         1    ;  uncertainty k = 0.393780
        70        63        64        72     9      180.000000       -0.059819         2    ;  uncertainty k = 0.102783
        70        63        64        72     9        0.000000        0.858414         3    ;  uncertainty k = 0.117522
        70        63        64        72     9      180.000000        0.076342         4    ;  uncertainty k = 0.040366
        71        64        65        73     9        0.000000        1.636398         1    ;  uncertainty k = 0.439311
        71        64        65        73     9      180.000000       -0.089671         2    ;  uncertainty k = 0.089727
        71        64        65        73     9        0.000000        0.857660         3    ;  uncertainty k = 0.096594
        71        64        65        73     9      180.000000        0.074359         4    ;  uncertainty k = 0.038126
        71        64        65        74     9        0.000000        1.636398         1    ;  uncertainty k = 0.439311
        71        64        65        74     9      180.000000       -0.089671         2    ;  uncertainty k = 0.089727
        71        64        65        74     9        0.000000        0.857660         3    ;  uncertainty k = 0.096594
        71        64        65        74     9      180.000000        0.074359         4    ;  uncertainty k = 0.038126
        72        64        65        73     9        0.000000        1.636398         1    ;  uncertainty k = 0.439311
        72        64        65        73     9      180.000000       -0.089671         2    ;  uncertainty k = 0.089727
        72        64        65        73     9        0.000000        0.857660         3    ;  uncertainty k = 0.096594
        72        64        65        73     9      180.000000        0.074359         4    ;  uncertainty k = 0.038126
        72        64        65        74     9        0.000000        1.636398         1    ;  uncertainty k = 0.439311
        72        64        65        74     9      180.000000       -0.089671         2    ;  uncertainty k = 0.089727
        72        64        65        74     9        0.000000        0.857660         3    ;  uncertainty k = 0.096594
        72        64        65        74     9      180.000000        0.074359         4    ;  uncertainty k = 0.038126

[ dihedrals ] ; impropers
;       ai        aj        ak        al funct           phase               k        pn
         5         1         6         7     4      180.000000       55.748670         2    ;  uncertainty k = 0.008050
         5         6         7         1     4      180.000000       55.748670         2    ;  uncertainty k = 0.008050
         5         7         1         6     4      180.000000       55.748670         2    ;  uncertainty k = 0.008050
        19        13        24        47     4      180.000000       15.203960         2    ;  uncertainty k = 0.057963
        19        24        47        13     4      180.000000       15.203960         2    ;  uncertainty k = 0.057963
        19        47        13        24     4      180.000000       15.203960         2    ;  uncertainty k = 0.057963
        24        19        25        28     4      180.000000        1.997747         2    ;  uncertainty k = 0.039296
        24        25        28        19     4      180.000000        1.997747         2    ;  uncertainty k = 0.039296
        24        28        19        25     4      180.000000        1.997747         2    ;  uncertainty k = 0.039296
        28        24        29        34     4      180.000000       18.344372         2    ;  uncertainty k = 0.038620
        28        29        34        24     4      180.000000       18.344372         2    ;  uncertainty k = 0.038620
        28        34        24        29     4      180.000000       18.344372         2    ;  uncertainty k = 0.038620
        33        27        37        59     4      180.000000       11.131007         2    ;  uncertainty k = 0.234683
        33        37        59        27     4      180.000000       11.131007         2    ;  uncertainty k = 0.234683
        33        59        27        37     4      180.000000       11.131007         2    ;  uncertainty k = 0.234683
        34        28        35        38     4      180.000000        1.035733         2    ;  uncertainty k = 0.329382
        34        35        38        28     4      180.000000        1.035733         2    ;  uncertainty k = 0.329382
        34        38        28        35     4      180.000000        1.035733         2    ;  uncertainty k = 0.329382
        37        33        42        46     4      180.000000        3.375392         2    ;  uncertainty k = 0.629876
        37        42        46        33     4      180.000000        3.375392         2    ;  uncertainty k = 0.629876
        37        46        33        42     4      180.000000        3.375392         2    ;  uncertainty k = 0.629876
        38        34        39        47     4      180.000000       18.344372         2    ;  uncertainty k = 0.038620
        38        39        47        34     4      180.000000       18.344372         2    ;  uncertainty k = 0.038620
        38        47        34        39     4      180.000000       18.344372         2    ;  uncertainty k = 0.038620
        46        37        52        61     4      180.000000       15.406500         2    ;  uncertainty k = 0.048431
        46        52        61        37     4      180.000000       15.406500         2    ;  uncertainty k = 0.048431
        46        61        37        52     4      180.000000       15.406500         2    ;  uncertainty k = 0.048431
        47        19        38        48     4      180.000000        1.997754         2    ;  uncertainty k = 0.039292
        47        38        48        19     4      180.000000        1.997754         2    ;  uncertainty k = 0.039292
        47        48        19        38     4      180.000000        1.997754         2    ;  uncertainty k = 0.039292
        52        46        53        57     4      180.000000        4.514844         2    ;  uncertainty k = 0.086404
        52        53        57        46     4      180.000000        4.514844         2    ;  uncertainty k = 0.086404
        52        57        46        53     4      180.000000        4.514844         2    ;  uncertainty k = 0.086404
        57        52        58        59     4      180.000000        3.992219         2    ;  uncertainty k = 0.042527
        57        58        59        52     4      180.000000        3.992219         2    ;  uncertainty k = 0.042527
        57        59        52        58     4      180.000000        3.992219         2    ;  uncertainty k = 0.042527
        59        33        57        60     4      180.000000        2.684375         2    ;  uncertainty k = 0.462458
        59        57        60        33     4      180.000000        2.684375         2    ;  uncertainty k = 0.462458
        59        60        33        57     4      180.000000        2.684375         2    ;  uncertainty k = 0.462458

[ pairs ]
;       ai        aj funct
         1         8     1
         1         9     1
         2         6     1
         2         7     1
         3         6     1
         3         7     1
         4         6     1
         4         7     1
         5        10     1
         5        11     1
         5        13     1
         6         8     1
         6         9     1
         7        12     1
         7        14     1
         7        15     1
         7        16     1
         7        19     1
         7        20     1
         8        10     1
         8        11     1
         8        13     1
         9        17     1
         9        18     1
         9        21     1
         9        22     1
         9        24     1
         9        47     1
        10        12     1
        10        14     1
        10        15     1
        10        16     1
        10        19     1
        10        20     1
        11        14     1
        11        15     1
        11        19     1
        11        23     1
        11        26     1
        11        27     1
        12        13     1
        12        17     1
        12        18     1
        12        21     1
        12        22     1
        13        16     1
        13        20     1
        13        25     1
        13        28     1
        13        38     1
        13        48     1
        14        24     1
        14        47     1
        15        24     1
        15        47     1
        16        21     1
        16        30     1
        16        33     1
        16        54     1
        17        20     1
        17        23     1
        17        26     1
        17        27     1
        18        20     1
        18        23     1
        18        26     1
        18        27     1
        19        29     1
        19        34     1
        19        39     1
        20        22     1
        22        31     1
        22        32     1
        22        36     1
        22        37     1
        22        49     1
        22        55     1
        22        56     1
        22        59     1
        23        30     1
        23        33     1
        23        54     1
        24        35     1
        24        38     1
        24        48     1
        25        29     1
        25        34     1
        25        47     1
        26        30     1
        26        33     1
        26        54     1
        27        40     1
        27        41     1
        27        42     1
        27        43     1
        27        46     1
        27        50     1
        27        51     1
        27        57     1
        27        60     1
        28        39     1
        28        47     1
        29        35     1
        29        38     1
        30        37     1
        30        44     1
        30        45     1
        30        49     1
        30        55     1
        30        56     1
        30        59     1
        31        33     1
        31        40     1
        31        41     1
        31        43     1
        31        54     1
        32        33     1
        32        40     1
        32        41     1
        32        43     1
        32        54     1
        33        36     1
        33        49     1
        33        52     1
        33        55     1
        33        56     1
        33        58     1
        33        61     1
        34        48     1
        35        39     1
        35        47     1
        36        50     1
        36        51     1
        36        54     1
        37        53     1
        37        54     1
        37        57     1
        37        60     1
        37        62     1
        37        65     1
        37        66     1
        39        48     1
        40        44     1
        40        45     1
        40        49     1
        41        44     1
        41        45     1
        41        49     1
        42        52     1
        42        59     1
        42        61     1
        43        55     1
        43        56     1
        44        50     1
        44        51     1
        44        54     1
        45        50     1
        45        51     1
        45        54     1
        46        58     1
        46        59     1
        46        63     1
        46        64     1
        46        67     1
        46        68     1
        46        73     1
        46        74     1
        50        55     1
        50        56     1
        51        55     1
        51        56     1
        52        60     1
        52        62     1
        52        65     1
        52        66     1
        53        58     1
        53        59     1
        53        61     1
        54        59     1
        57        61     1
        58        60     1
        61        69     1
        61        70     1
        61        71     1
        61        72     1
        62        71     1
        62        72     1
        62        73     1
        62        74     1
        63        66     1
        63        73     1
        63        74     1
        64        66     1
        64        67     1
        64        68     1
        65        67     1
        65        68     1
        65        69     1
        65        70     1
        66        67     1
        66        68     1
        66        73     1
        66        74     1
        67        69     1
        67        70     1
        68        69     1
        68        70     1
        69        71     1
        69        72     1
        70        71     1
        70        72     1
        71        73     1
        71        74     1
        72        73     1
        72        74     1
