; ITP file created by ByteFF-joint-25, 2025-07-14 11:38:02.069019

[ atomtypes ]
;name           bonded.type        at.num        mass        charge   ptype           sigma         epsilon
 c0bf                                   6      0.0000       0.00000       A     3.39772e-01     4.51054e-01    ;  uncertainty sigma = 0.000008, epsilon = 0.000483
 h1bf                                   1      0.0000       0.00000       A     2.60030e-01     8.67107e-02    ;  uncertainty sigma = 0.000011, epsilon = 0.000525
 h2bf                                   1      0.0000       0.00000       A     2.60030e-01     8.67107e-02    ;  uncertainty sigma = 0.000011, epsilon = 0.000525
 h3bf                                   1      0.0000       0.00000       A     2.60030e-01     8.67107e-02    ;  uncertainty sigma = 0.000011, epsilon = 0.000525
 c4bf                                   6      0.0000       0.00000       A     3.31513e-01     4.12852e-01    ;  uncertainty sigma = 0.000004, epsilon = 0.000655
 o5bf                                   8      0.0000       0.00000       A     3.04828e-01     6.12615e-01    ;  uncertainty sigma = 0.000014, epsilon = 0.001002
 n6bf                                   7      0.0000       0.00000       A     3.27045e-01     4.90541e-01    ;  uncertainty sigma = 0.000023, epsilon = 0.001594
 h7bf                                   1      0.0000       0.00000       A     1.10668e-01     4.09050e-02    ;  uncertainty sigma = 0.000072, epsilon = 0.001112
 c8bf                                   6      0.0000       0.00000       A     3.39790e-01     4.50829e-01    ;  uncertainty sigma = 0.000023, epsilon = 0.001471
 h9bf                                   1      0.0000       0.00000       A     2.42336e-01     8.69402e-02    ;  uncertainty sigma = 0.000054, epsilon = 0.000820
 c10bf                                  6      0.0000       0.00000       A     3.39747e-01     4.52098e-01    ;  uncertainty sigma = 0.000049, epsilon = 0.001873
 h11bf                                  1      0.0000       0.00000       A     2.42270e-01     8.70607e-02    ;  uncertainty sigma = 0.000129, epsilon = 0.000760
 c12bf                                  6      0.0000       0.00000       A     3.39801e-01     4.50535e-01    ;  uncertainty sigma = 0.000006, epsilon = 0.001188
 h13bf                                  1      0.0000       0.00000       A     2.60052e-01     8.66550e-02    ;  uncertainty sigma = 0.000011, epsilon = 0.000507
 h14bf                                  1      0.0000       0.00000       A     2.60052e-01     8.66550e-02    ;  uncertainty sigma = 0.000011, epsilon = 0.000507
 c15bf                                  6      0.0000       0.00000       A     3.39738e-01     4.51549e-01    ;  uncertainty sigma = 0.000027, epsilon = 0.001260
 h16bf                                  1      0.0000       0.00000       A     1.88629e-01     8.69379e-02    ;  uncertainty sigma = 0.000079, epsilon = 0.001173
 h17bf                                  1      0.0000       0.00000       A     1.88629e-01     8.69379e-02    ;  uncertainty sigma = 0.000079, epsilon = 0.001173
 c18bf                                  6      0.0000       0.00000       A     3.31522e-01     4.13086e-01    ;  uncertainty sigma = 0.000004, epsilon = 0.000785
 o19bf                                  8      0.0000       0.00000       A     3.24272e-01     3.89966e-01    ;  uncertainty sigma = 0.000033, epsilon = 0.002858
 h20bf                                  1      0.0000       0.00000       A     5.38199e-02     1.93874e-02    ;  uncertainty sigma = 0.000141, epsilon = 0.001221
 n21bf                                  7      0.0000       0.00000       A     2.67990e-01     7.08627e+00    ;  uncertainty sigma = 0.000124, epsilon = 0.019223
 h22bf                                  1      0.0000       0.00000       A     1.10767e-01     4.17022e-02    ;  uncertainty sigma = 0.000099, epsilon = 0.001196
 c23bf                                  6      0.0000       0.00000       A     3.31510e-01     4.13312e-01    ;  uncertainty sigma = 0.000005, epsilon = 0.000640
 h24bf                                  1      0.0000       0.00000       A     2.62568e-01     6.71735e-02    ;  uncertainty sigma = 0.000008, epsilon = 0.000444
 h25bf                                  1      0.0000       0.00000       A     1.10767e-01     4.17022e-02    ;  uncertainty sigma = 0.000099, epsilon = 0.001196
 c26bf                                  6      0.0000       0.00000       A     3.39762e-01     4.49866e-01    ;  uncertainty sigma = 0.000032, epsilon = 0.004225
 c27bf                                  6      0.0000       0.00000       A     3.31513e-01     4.13329e-01    ;  uncertainty sigma = 0.000007, epsilon = 0.000328
 f28bf                                  9      0.0000       0.00000       A     3.03430e-01     3.47919e-01    ;  uncertainty sigma = 0.000008, epsilon = 0.000740
 c29bf                                  6      0.0000       0.00000       A     3.39752e-01     4.51137e-01    ;  uncertainty sigma = 0.000018, epsilon = 0.000657
 h30bf                                  1      0.0000       0.00000       A     2.60046e-01     8.67815e-02    ;  uncertainty sigma = 0.000019, epsilon = 0.001029
 h31bf                                  1      0.0000       0.00000       A     2.60046e-01     8.67815e-02    ;  uncertainty sigma = 0.000019, epsilon = 0.001029
 c32bf                                  6      0.0000       0.00000       A     3.31397e-01     4.13946e-01    ;  uncertainty sigma = 0.000111, epsilon = 0.001280
 c33bf                                  6      0.0000       0.00000       A     3.31523e-01     4.13619e-01    ;  uncertainty sigma = 0.000007, epsilon = 0.000754
 h34bf                                  1      0.0000       0.00000       A     2.62567e-01     6.73685e-02    ;  uncertainty sigma = 0.000010, epsilon = 0.000382
 c35bf                                  6      0.0000       0.00000       A     3.39774e-01     4.50569e-01    ;  uncertainty sigma = 0.000005, epsilon = 0.000726
 c36bf                                  6      0.0000       0.00000       A     3.31549e-01     4.13146e-01    ;  uncertainty sigma = 0.000017, epsilon = 0.001089
 c37bf                                  6      0.0000       0.00000       A     3.31513e-01     4.13329e-01    ;  uncertainty sigma = 0.000007, epsilon = 0.000328
 f38bf                                  9      0.0000       0.00000       A     3.03430e-01     3.47919e-01    ;  uncertainty sigma = 0.000008, epsilon = 0.000740
 h39bf                                  1      0.0000       0.00000       A     2.60035e-01     8.68913e-02    ;  uncertainty sigma = 0.000009, epsilon = 0.000671
 h40bf                                  1      0.0000       0.00000       A     2.60035e-01     8.68913e-02    ;  uncertainty sigma = 0.000009, epsilon = 0.000671
 h41bf                                  1      0.0000       0.00000       A     2.62545e-01     6.73088e-02    ;  uncertainty sigma = 0.000017, epsilon = 0.000697
 c42bf                                  6      0.0000       0.00000       A     3.39778e-01     4.50840e-01    ;  uncertainty sigma = 0.000007, epsilon = 0.000468
 h43bf                                  1      0.0000       0.00000       A     2.60038e-01     8.68000e-02    ;  uncertainty sigma = 0.000010, epsilon = 0.000496
 h44bf                                  1      0.0000       0.00000       A     2.60038e-01     8.68000e-02    ;  uncertainty sigma = 0.000010, epsilon = 0.000496
 c45bf                                  6      0.0000       0.00000       A     3.31485e-01     4.13550e-01    ;  uncertainty sigma = 0.000015, epsilon = 0.001190
 c46bf                                  6      0.0000       0.00000       A     3.31510e-01     4.13312e-01    ;  uncertainty sigma = 0.000005, epsilon = 0.000639
 h47bf                                  1      0.0000       0.00000       A     2.62568e-01     6.71735e-02    ;  uncertainty sigma = 0.000008, epsilon = 0.000444
 c48bf                                  6      0.0000       0.00000       A     3.39774e-01     4.50569e-01    ;  uncertainty sigma = 0.000005, epsilon = 0.000726
 h49bf                                  1      0.0000       0.00000       A     2.60035e-01     8.68912e-02    ;  uncertainty sigma = 0.000009, epsilon = 0.000671
 h50bf                                  1      0.0000       0.00000       A     2.60035e-01     8.68912e-02    ;  uncertainty sigma = 0.000009, epsilon = 0.000671
 c51bf                                  6      0.0000       0.00000       A     3.31518e-01     4.13286e-01    ;  uncertainty sigma = 0.000005, epsilon = 0.000681
 h52bf                                  1      0.0000       0.00000       A     2.62558e-01     6.71150e-02    ;  uncertainty sigma = 0.000012, epsilon = 0.000523
 c53bf                                  6      0.0000       0.00000       A     3.39752e-01     4.51137e-01    ;  uncertainty sigma = 0.000018, epsilon = 0.000657
 h54bf                                  1      0.0000       0.00000       A     2.60046e-01     8.67814e-02    ;  uncertainty sigma = 0.000019, epsilon = 0.001029
 h55bf                                  1      0.0000       0.00000       A     2.60046e-01     8.67814e-02    ;  uncertainty sigma = 0.000019, epsilon = 0.001029
 c56bf                                  6      0.0000       0.00000       A     3.31525e-01     4.13327e-01    ;  uncertainty sigma = 0.000003, epsilon = 0.000752
 h57bf                                  1      0.0000       0.00000       A     2.62563e-01     6.69888e-02    ;  uncertainty sigma = 0.000011, epsilon = 0.000447
 c58bf                                  6      0.0000       0.00000       A     3.31536e-01     4.13071e-01    ;  uncertainty sigma = 0.000005, epsilon = 0.000801
 h59bf                                  1      0.0000       0.00000       A     2.62553e-01     6.70822e-02    ;  uncertainty sigma = 0.000011, epsilon = 0.000402
 c60bf                                  6      0.0000       0.00000       A     3.39757e-01     4.50809e-01    ;  uncertainty sigma = 0.000012, epsilon = 0.000904
 c61bf                                  6      0.0000       0.00000       A     3.39786e-01     4.51145e-01    ;  uncertainty sigma = 0.000013, epsilon = 0.001481
 n62bf                                  7      0.0000       0.00000       A     3.18048e-01     6.84190e-01    ;  uncertainty sigma = 0.000012, epsilon = 0.003947
 c63bf                                  6      0.0000       0.00000       A     3.31503e-01     4.13390e-01    ;  uncertainty sigma = 0.000021, epsilon = 0.000702
 c64bf                                  6      0.0000       0.00000       A     3.39805e-01     4.51507e-01    ;  uncertainty sigma = 0.000013, epsilon = 0.001466
 o65bf                                  8      0.0000       0.00000       A     3.15601e-01     3.03320e-01    ;  uncertainty sigma = 0.000024, epsilon = 0.001129
 h66bf                                  1      0.0000       0.00000       A     2.42206e-01     8.67495e-02    ;  uncertainty sigma = 0.000016, epsilon = 0.000767
 h67bf                                  1      0.0000       0.00000       A     2.42206e-01     8.67495e-02    ;  uncertainty sigma = 0.000016, epsilon = 0.000767
 h68bf                                  1      0.0000       0.00000       A     2.42210e-01     8.66446e-02    ;  uncertainty sigma = 0.000021, epsilon = 0.000595
 h69bf                                  1      0.0000       0.00000       A     2.42210e-01     8.66446e-02    ;  uncertainty sigma = 0.000021, epsilon = 0.000595
 h70bf                                  1      0.0000       0.00000       A     2.42212e-01     8.71073e-02    ;  uncertainty sigma = 0.000032, epsilon = 0.000699
 h71bf                                  1      0.0000       0.00000       A     2.42212e-01     8.71073e-02    ;  uncertainty sigma = 0.000032, epsilon = 0.000699
 o72bf                                  8      0.0000       0.00000       A     3.04854e-01     6.12002e-01    ;  uncertainty sigma = 0.000016, epsilon = 0.000981

[ moleculetype ]
;name             nrexcl
 MOL                   3

[ atoms ]
;       nr            type      resi   res      atom      cgnr      charge          mass ; qtot
         1            c0bf         1   UNL        c0         1    -0.17390       12.0110 ; qtot   -0.174
         2            h1bf         1   UNL        h1         2     0.06220        1.0080 ; qtot   -0.112
         3            h2bf         1   UNL        h2         3     0.06220        1.0080 ; qtot   -0.049
         4            h3bf         1   UNL        h3         4     0.06220        1.0080 ; qtot    0.013
         5            c4bf         1   UNL        c4         5     0.66558       12.0110 ; qtot    0.678
         6            o5bf         1   UNL        o5         6    -0.60952       15.9990 ; qtot    0.069
         7            n6bf         1   UNL        n6         7    -0.57993       14.0070 ; qtot   -0.511
         8            h7bf         1   UNL        h7         8     0.32334        1.0080 ; qtot   -0.188
         9            c8bf         1   UNL        c8         9     0.09994       12.0110 ; qtot   -0.088
        10            h9bf         1   UNL        h9        10     0.08379        1.0080 ; qtot   -0.004
        11           c10bf         1   UNL       c10        11     0.13138       12.0110 ; qtot    0.127
        12           h11bf         1   UNL       h11        12     0.07988        1.0080 ; qtot    0.207
        13           c12bf         1   UNL       c12        13    -0.04881       12.0110 ; qtot    0.158
        14           h13bf         1   UNL       h13        14     0.06994        1.0080 ; qtot    0.228
        15           h14bf         1   UNL       h14        15     0.06994        1.0080 ; qtot    0.298
        16           c15bf         1   UNL       c15        16     0.13771       12.0110 ; qtot    0.436
        17           h16bf         1   UNL       h16        17     0.11216        1.0080 ; qtot    0.548
        18           h17bf         1   UNL       h17        18     0.11216        1.0080 ; qtot    0.660
        19           c18bf         1   UNL       c18        19    -0.03209       12.0110 ; qtot    0.628
        20           o19bf         1   UNL       o19        20    -0.63288       15.9990 ; qtot   -0.005
        21           h20bf         1   UNL       h20        21     0.46298        1.0080 ; qtot    0.458
        22           n21bf         1   UNL       n21        22    -0.79030       14.0070 ; qtot   -0.332
        23           h22bf         1   UNL       h22        23     0.46101        1.0080 ; qtot    0.129
        24           c23bf         1   UNL       c23        24    -0.17594       12.0110 ; qtot   -0.047
        25           h24bf         1   UNL       h24        25     0.15771        1.0080 ; qtot    0.111
        26           h25bf         1   UNL       h25        26     0.46101        1.0080 ; qtot    0.572
        27           c26bf         1   UNL       c26        27     0.26089       12.0110 ; qtot    0.833
        28           c27bf         1   UNL       c27        28     0.15605       12.0110 ; qtot    0.989
        29           f28bf         1   UNL       f28        29    -0.13988       18.9980 ; qtot    0.849
        30           c29bf         1   UNL       c29        30    -0.09930       12.0110 ; qtot    0.750
        31           h30bf         1   UNL       h30        31     0.07240        1.0080 ; qtot    0.822
        32           h31bf         1   UNL       h31        32     0.07240        1.0080 ; qtot    0.894
        33           c32bf         1   UNL       c32        33    -0.14244       12.0110 ; qtot    0.752
        34           c33bf         1   UNL       c33        34    -0.20667       12.0110 ; qtot    0.545
        35           h34bf         1   UNL       h34        35     0.17106        1.0080 ; qtot    0.716
        36           c35bf         1   UNL       c35        36    -0.07656       12.0110 ; qtot    0.640
        37           c36bf         1   UNL       c36        37    -0.11169       12.0110 ; qtot    0.528
        38           c37bf         1   UNL       c37        38     0.15605       12.0110 ; qtot    0.684
        39           f38bf         1   UNL       f38        39    -0.13988       18.9980 ; qtot    0.544
        40           h39bf         1   UNL       h39        40     0.06136        1.0080 ; qtot    0.606
        41           h40bf         1   UNL       h40        41     0.06136        1.0080 ; qtot    0.667
        42           h41bf         1   UNL       h41        42     0.15240        1.0080 ; qtot    0.819
        43           c42bf         1   UNL       c42        43    -0.08801       12.0110 ; qtot    0.731
        44           h43bf         1   UNL       h43        44     0.05454        1.0080 ; qtot    0.786
        45           h44bf         1   UNL       h44        45     0.05454        1.0080 ; qtot    0.840
        46           c45bf         1   UNL       c45        46     0.07092       12.0110 ; qtot    0.911
        47           c46bf         1   UNL       c46        47    -0.17594       12.0110 ; qtot    0.735
        48           h47bf         1   UNL       h47        48     0.15771        1.0080 ; qtot    0.893
        49           c48bf         1   UNL       c48        49    -0.07656       12.0110 ; qtot    0.817
        50           h49bf         1   UNL       h49        50     0.06136        1.0080 ; qtot    0.878
        51           h50bf         1   UNL       h50        51     0.06136        1.0080 ; qtot    0.939
        52           c51bf         1   UNL       c51        52    -0.12292       12.0110 ; qtot    0.816
        53           h52bf         1   UNL       h52        53     0.14646        1.0080 ; qtot    0.963
        54           c53bf         1   UNL       c53        54    -0.09930       12.0110 ; qtot    0.863
        55           h54bf         1   UNL       h54        55     0.07240        1.0080 ; qtot    0.936
        56           h55bf         1   UNL       h55        56     0.07240        1.0080 ; qtot    1.008
        57           c56bf         1   UNL       c56        57    -0.08601       12.0110 ; qtot    0.922
        58           h57bf         1   UNL       h57        58     0.14588        1.0080 ; qtot    1.068
        59           c58bf         1   UNL       c58        59    -0.12620       12.0110 ; qtot    0.942
        60           h59bf         1   UNL       h59        60     0.14204        1.0080 ; qtot    1.084
        61           c60bf         1   UNL       c60        61     0.10626       12.0110 ; qtot    1.190
        62           c61bf         1   UNL       c61        62     0.07804       12.0110 ; qtot    1.268
        63           n62bf         1   UNL       n62        63    -0.40275       14.0070 ; qtot    0.866
        64           c63bf         1   UNL       c63        64     0.68248       12.0110 ; qtot    1.548
        65           c64bf         1   UNL       c64        65     0.04576       12.0110 ; qtot    1.594
        66           o65bf         1   UNL       o65        66    -0.39206       15.9990 ; qtot    1.202
        67           h66bf         1   UNL       h66        67     0.06390        1.0080 ; qtot    1.266
        68           h67bf         1   UNL       h67        68     0.06390        1.0080 ; qtot    1.330
        69           h68bf         1   UNL       h68        69     0.06138        1.0080 ; qtot    1.391
        70           h69bf         1   UNL       h69        70     0.06138        1.0080 ; qtot    1.452
        71           h70bf         1   UNL       h70        71     0.07868        1.0080 ; qtot    1.531
        72           h71bf         1   UNL       h71        72     0.07868        1.0080 ; qtot    1.610
        73           o72bf         1   UNL       o72        73    -0.60963       15.9990 ; qtot    1.000

[ bonds ]
;       ai        aj funct               r               k
         1         2     1        0.109474   320790.834766    ;  uncertainty r = 0.000014, k = 2.210414
         1         3     1        0.109474   320790.834766    ;  uncertainty r = 0.000014, k = 2.210414
         1         4     1        0.109474   320790.834766    ;  uncertainty r = 0.000014, k = 2.210414
         1         5     1        0.152711   231291.489355    ;  uncertainty r = 0.000074, k = 7.077691
         5         6     1        0.123818   755192.387500    ;  uncertainty r = 0.000160, k = 11.110564
         5         7     1        0.137333   359141.597363    ;  uncertainty r = 0.000068, k = 22.289233
         7         8     1        0.101564   425616.097607    ;  uncertainty r = 0.000034, k = 2.445565
         7         9     1        0.145300   250659.343848    ;  uncertainty r = 0.000113, k = 16.035835
         9        10     1        0.109480   308779.225537    ;  uncertainty r = 0.000054, k = 1.565093
         9        11     1        0.152383   188750.265869    ;  uncertainty r = 0.000545, k = 10.926084
         9        13     1        0.153294   189941.265576    ;  uncertainty r = 0.000146, k = 3.560964
        11        12     1        0.109667   308472.933447    ;  uncertainty r = 0.000048, k = 5.020703
        11        16     1        0.152505   198805.477148    ;  uncertainty r = 0.000265, k = 14.080397
        11        20     1        0.142287   266443.729004    ;  uncertainty r = 0.000176, k = 20.737548
        13        14     1        0.109564   310340.232422    ;  uncertainty r = 0.000030, k = 3.251836
        13        15     1        0.109564   310340.232422    ;  uncertainty r = 0.000030, k = 3.251836
        13        19     1        0.150998   225384.883643    ;  uncertainty r = 0.000046, k = 1.857052
        16        17     1        0.109007   316542.838770    ;  uncertainty r = 0.000050, k = 3.243054
        16        18     1        0.109007   316542.838770    ;  uncertainty r = 0.000050, k = 3.243054
        16        22     1        0.150039   211986.571069    ;  uncertainty r = 0.000199, k = 39.388881
        19        24     1        0.139878   357503.059814    ;  uncertainty r = 0.000043, k = 2.283058
        19        47     1        0.139878   357503.034277    ;  uncertainty r = 0.000043, k = 2.283034
        20        21     1        0.096881   465425.156836    ;  uncertainty r = 0.000065, k = 1.510014
        22        23     1        0.103045   376286.804004    ;  uncertainty r = 0.000130, k = 5.789097
        22        26     1        0.103045   376286.804004    ;  uncertainty r = 0.000130, k = 5.789097
        22        27     1        0.156809   159261.914478    ;  uncertainty r = 0.000528, k = 89.428494
        24        25     1        0.108819   336813.787598    ;  uncertainty r = 0.000022, k = 1.111393
        24        28     1        0.138973   358518.262061    ;  uncertainty r = 0.000027, k = 2.522678
        27        30     1        0.154179   196192.137061    ;  uncertainty r = 0.000175, k = 7.519910
        27        33     1        0.152157   217882.719336    ;  uncertainty r = 0.000125, k = 24.772248
        27        54     1        0.154179   196192.085986    ;  uncertainty r = 0.000175, k = 7.519974
        28        29     1        0.135440   340257.875391    ;  uncertainty r = 0.000027, k = 1.328140
        28        34     1        0.139034   367053.708887    ;  uncertainty r = 0.000010, k = 2.576016
        30        31     1        0.109621   308946.187158    ;  uncertainty r = 0.000016, k = 1.707426
        30        32     1        0.109621   308946.187158    ;  uncertainty r = 0.000016, k = 1.707426
        30        36     1        0.153567   211163.267432    ;  uncertainty r = 0.000073, k = 3.808334
        33        37     1        0.139704   341444.840234    ;  uncertainty r = 0.000108, k = 6.969808
        33        59     1        0.139938   346328.429346    ;  uncertainty r = 0.000072, k = 7.038566
        34        35     1        0.108764   339427.817187    ;  uncertainty r = 0.000016, k = 1.050232
        34        38     1        0.139034   367053.708887    ;  uncertainty r = 0.000010, k = 2.576011
        36        40     1        0.109589   307310.688525    ;  uncertainty r = 0.000018, k = 2.510590
        36        41     1        0.109589   307310.688525    ;  uncertainty r = 0.000018, k = 2.510590
        36        43     1        0.153381   215649.882178    ;  uncertainty r = 0.000053, k = 4.058027
        37        42     1        0.108784   336465.206055    ;  uncertainty r = 0.000039, k = 2.127285
        37        46     1        0.139849   332293.310645    ;  uncertainty r = 0.000107, k = 4.312955
        38        39     1        0.135440   340257.875391    ;  uncertainty r = 0.000027, k = 1.328147
        38        47     1        0.138973   358518.262061    ;  uncertainty r = 0.000027, k = 2.522681
        43        44     1        0.109671   307274.604590    ;  uncertainty r = 0.000042, k = 1.783240
        43        45     1        0.109671   307274.604590    ;  uncertainty r = 0.000042, k = 1.783240
        43        49     1        0.153381   215649.907715    ;  uncertainty r = 0.000053, k = 4.058027
        46        52     1        0.139875   339295.177441    ;  uncertainty r = 0.000034, k = 3.689405
        46        63     1        0.142481   321347.799121    ;  uncertainty r = 0.000059, k = 4.762174
        47        48     1        0.108819   336813.813135    ;  uncertainty r = 0.000022, k = 1.111386
        49        50     1        0.109589   307310.662988    ;  uncertainty r = 0.000018, k = 2.510617
        49        51     1        0.109589   307310.662988    ;  uncertainty r = 0.000018, k = 2.510617
        49        54     1        0.153567   211163.292969    ;  uncertainty r = 0.000073, k = 3.808310
        52        53     1        0.108701   337306.551660    ;  uncertainty r = 0.000014, k = 1.062643
        52        57     1        0.139202   372963.430127    ;  uncertainty r = 0.000041, k = 4.324060
        54        55     1        0.109621   308946.161621    ;  uncertainty r = 0.000016, k = 1.707394
        54        56     1        0.109621   308946.161621    ;  uncertainty r = 0.000016, k = 1.707394
        57        58     1        0.108745   332187.280566    ;  uncertainty r = 0.000013, k = 1.297511
        57        59     1        0.139642   367324.197949    ;  uncertainty r = 0.000054, k = 2.175092
        59        60     1        0.108795   334414.244189    ;  uncertainty r = 0.000025, k = 2.206401
        61        62     1        0.151785   212304.929443    ;  uncertainty r = 0.000098, k = 7.497120
        61        66     1        0.141682   273921.403223    ;  uncertainty r = 0.000070, k = 3.367726
        61        67     1        0.109745   309852.703467    ;  uncertainty r = 0.000021, k = 2.274698
        61        68     1        0.109745   309852.703467    ;  uncertainty r = 0.000021, k = 2.274698
        62        63     1        0.146801   231970.470020    ;  uncertainty r = 0.000161, k = 10.954365
        62        69     1        0.109567   306224.314355    ;  uncertainty r = 0.000026, k = 2.846357
        62        70     1        0.109567   306224.314355    ;  uncertainty r = 0.000026, k = 2.846357
        63        64     1        0.137243   305662.804395    ;  uncertainty r = 0.000071, k = 9.671533
        64        65     1        0.152588   227429.665527    ;  uncertainty r = 0.000031, k = 13.670360
        64        73     1        0.122848   706581.325098    ;  uncertainty r = 0.000155, k = 10.925427
        65        66     1        0.141763   280237.547559    ;  uncertainty r = 0.000073, k = 12.124425
        65        71     1        0.109727   314955.962793    ;  uncertainty r = 0.000035, k = 3.026624
        65        72     1        0.109727   314955.962793    ;  uncertainty r = 0.000035, k = 3.026624

[ angles ]
;       ai        aj        ak funct           theta             cth
         1         5         6     1      124.114609      550.306959    ;  uncertainty theta = 0.002623, k = 0.032329
         1         5         7     1      115.216919      550.905293    ;  uncertainty theta = 0.002696, k = 0.069666
         2         1         3     1      106.853615      313.202304    ;  uncertainty theta = 0.000833, k = 0.016143
         2         1         4     1      106.853615      313.202304    ;  uncertainty theta = 0.000833, k = 0.016143
         2         1         5     1      108.518921      366.857878    ;  uncertainty theta = 0.000489, k = 0.046005
         3         1         4     1      106.853615      313.202304    ;  uncertainty theta = 0.000833, k = 0.016143
         3         1         5     1      108.518921      366.857878    ;  uncertainty theta = 0.000489, k = 0.046005
         4         1         5     1      108.518921      366.857878    ;  uncertainty theta = 0.000489, k = 0.046005
         5         7         8     1      114.594887      334.719170    ;  uncertainty theta = 0.004973, k = 0.111293
         5         7         9     1      115.815430      437.769802    ;  uncertainty theta = 0.005380, k = 0.200643
         6         5         7     1      124.171410      718.367761    ;  uncertainty theta = 0.003813, k = 0.041626
         7         9        10     1      106.034767      440.628011    ;  uncertainty theta = 0.004673, k = 0.107398
         7         9        11     1      109.053207      570.016308    ;  uncertainty theta = 0.005091, k = 0.174962
         7         9        13     1      110.669174      625.361289    ;  uncertainty theta = 0.002458, k = 0.075124
         8         7         9     1      111.405823      315.356998    ;  uncertainty theta = 0.004839, k = 0.060537
         9        11        12     1      107.993507      385.094247    ;  uncertainty theta = 0.001015, k = 0.063045
         9        11        16     1      109.543381      505.432831    ;  uncertainty theta = 0.005078, k = 0.100834
         9        11        20     1      110.917030      684.451607    ;  uncertainty theta = 0.005397, k = 0.185579
         9        13        14     1      106.283981      387.161539    ;  uncertainty theta = 0.001882, k = 0.049333
         9        13        15     1      106.283981      387.161539    ;  uncertainty theta = 0.001882, k = 0.049333
         9        13        19     1      110.952209      515.080942    ;  uncertainty theta = 0.002306, k = 0.112637
        10         9        11     1      107.043015      383.331069    ;  uncertainty theta = 0.004317, k = 0.113928
        10         9        13     1      108.445236      397.362370    ;  uncertainty theta = 0.003124, k = 0.053667
        11         9        13     1      108.613907      506.308626    ;  uncertainty theta = 0.002977, k = 0.141600
        11        16        17     1      110.138550      383.066824    ;  uncertainty theta = 0.004026, k = 0.067197
        11        16        18     1      110.138550      383.066824    ;  uncertainty theta = 0.004026, k = 0.067197
        11        16        22     1      109.382980      656.485152    ;  uncertainty theta = 0.005351, k = 0.150202
        11        20        21     1      108.698219      427.689730    ;  uncertainty theta = 0.005202, k = 0.196685
        12        11        16     1      108.843399      390.093359    ;  uncertainty theta = 0.004048, k = 0.084273
        12        11        20     1      108.883446      475.467778    ;  uncertainty theta = 0.004926, k = 0.162312
        13        19        24     1      120.624069      416.815742    ;  uncertainty theta = 0.001219, k = 0.079657
        13        19        47     1      120.624069      416.815742    ;  uncertainty theta = 0.001219, k = 0.079657
        14        13        15     1      105.130737      320.868002    ;  uncertainty theta = 0.002316, k = 0.034430
        14        13        19     1      107.571251      395.723462    ;  uncertainty theta = 0.001665, k = 0.074273
        15        13        19     1      107.571251      395.723462    ;  uncertainty theta = 0.001665, k = 0.074273
        16        11        20     1      106.913956      686.762013    ;  uncertainty theta = 0.004279, k = 0.304534
        16        22        23     1      108.501389      438.877187    ;  uncertainty theta = 0.005279, k = 0.145924
        16        22        26     1      108.501389      438.877187    ;  uncertainty theta = 0.005279, k = 0.145924
        16        22        27     1      113.261070      540.860335    ;  uncertainty theta = 0.005771, k = 0.203331
        17        16        18     1      108.693039      321.952307    ;  uncertainty theta = 0.001865, k = 0.059911
        17        16        22     1      106.102272      457.256659    ;  uncertainty theta = 0.003939, k = 0.078283
        18        16        22     1      106.102272      457.256659    ;  uncertainty theta = 0.003939, k = 0.078283
        19        24        25     1      120.673325      264.594874    ;  uncertainty theta = 0.002389, k = 0.061243
        19        24        28     1      118.734276      495.363421    ;  uncertainty theta = 0.000711, k = 0.136380
        19        47        38     1      118.734276      495.363421    ;  uncertainty theta = 0.000711, k = 0.136380
        19        47        48     1      120.673325      264.594874    ;  uncertainty theta = 0.002389, k = 0.061243
        22        27        30     1      106.946777      669.547447    ;  uncertainty theta = 0.002123, k = 0.202352
        22        27        33     1      107.266296      652.461142    ;  uncertainty theta = 0.003992, k = 0.152515
        22        27        54     1      106.946777      669.547447    ;  uncertainty theta = 0.002123, k = 0.202352
        23        22        26     1      107.166519      378.329562    ;  uncertainty theta = 0.006936, k = 0.197971
        23        22        27     1      109.022217      406.937477    ;  uncertainty theta = 0.005186, k = 0.152718
        24        19        47     1      120.936752      456.890042    ;  uncertainty theta = 0.001717, k = 0.065710
        24        28        29     1      119.004471      504.013159    ;  uncertainty theta = 0.001605, k = 0.057410
        24        28        34     1      123.554550      364.762558    ;  uncertainty theta = 0.003888, k = 0.175926
        25        24        28     1      120.595474      288.744329    ;  uncertainty theta = 0.002236, k = 0.050484
        26        22        27     1      109.022217      406.937477    ;  uncertainty theta = 0.005186, k = 0.152718
        27        30        31     1      106.792397      375.620617    ;  uncertainty theta = 0.002738, k = 0.113182
        27        30        32     1      106.792397      375.620617    ;  uncertainty theta = 0.002738, k = 0.113182
        27        30        36     1      110.208717      539.031623    ;  uncertainty theta = 0.002594, k = 0.119742
        27        33        37     1      117.593163      362.568729    ;  uncertainty theta = 0.007100, k = 0.110027
        27        33        59     1      118.691040      377.917457    ;  uncertainty theta = 0.008207, k = 0.136016
        27        54        49     1      110.208717      539.031559    ;  uncertainty theta = 0.002594, k = 0.119741
        27        54        55     1      106.792404      375.620617    ;  uncertainty theta = 0.002738, k = 0.113182
        27        54        56     1      106.792404      375.620617    ;  uncertainty theta = 0.002738, k = 0.113182
        28        34        35     1      122.344772      278.941910    ;  uncertainty theta = 0.002695, k = 0.055069
        28        34        38     1      115.447708      471.686690    ;  uncertainty theta = 0.003248, k = 0.205521
        29        28        34     1      118.454575      505.995701    ;  uncertainty theta = 0.002219, k = 0.025659
        30        27        33     1      111.417015      560.091502    ;  uncertainty theta = 0.006288, k = 0.035530
        30        27        54     1      110.667847      605.980602    ;  uncertainty theta = 0.008386, k = 0.264851
        30        36        40     1      107.863991      396.660418    ;  uncertainty theta = 0.001008, k = 0.062207
        30        36        41     1      107.863991      396.660418    ;  uncertainty theta = 0.001008, k = 0.062207
        30        36        43     1      109.361328      608.117356    ;  uncertainty theta = 0.001858, k = 0.123060
        31        30        32     1      105.426979      320.993995    ;  uncertainty theta = 0.002023, k = 0.045258
        31        30        36     1      108.921654      411.595956    ;  uncertainty theta = 0.001154, k = 0.062481
        32        30        36     1      108.921654      411.595956    ;  uncertainty theta = 0.001154, k = 0.062481
        33        27        54     1      111.417015      560.091502    ;  uncertainty theta = 0.006288, k = 0.035530
        33        37        42     1      118.757484      271.808469    ;  uncertainty theta = 0.005631, k = 0.088977
        33        37        46     1      121.966270      514.411040    ;  uncertainty theta = 0.005011, k = 0.149885
        33        59        57     1      120.520187      509.271058    ;  uncertainty theta = 0.003757, k = 0.046865
        33        59        60     1      118.392441      274.875636    ;  uncertainty theta = 0.002805, k = 0.076127
        34        38        39     1      118.454575      505.995669    ;  uncertainty theta = 0.002219, k = 0.025659
        34        38        47     1      123.554550      364.762558    ;  uncertainty theta = 0.003888, k = 0.175926
        35        34        38     1      122.344772      278.941910    ;  uncertainty theta = 0.002695, k = 0.055069
        36        43        44     1      108.647804      401.629206    ;  uncertainty theta = 0.001491, k = 0.045044
        36        43        45     1      108.647804      401.629206    ;  uncertainty theta = 0.001491, k = 0.045044
        36        43        49     1      108.296860      637.048858    ;  uncertainty theta = 0.003751, k = 0.180945
        37        33        59     1      122.777649      438.336055    ;  uncertainty theta = 0.004147, k = 0.139397
        37        46        52     1      121.014465      358.203415    ;  uncertainty theta = 0.007286, k = 0.314605
        37        46        63     1      119.363266      465.465403    ;  uncertainty theta = 0.002961, k = 0.212916
        38        47        48     1      120.595474      288.744329    ;  uncertainty theta = 0.002236, k = 0.050484
        39        38        47     1      119.004456      504.013095    ;  uncertainty theta = 0.001605, k = 0.057410
        40        36        41     1      104.333008      313.158891    ;  uncertainty theta = 0.002478, k = 0.062600
        40        36        43     1      108.923805      408.723159    ;  uncertainty theta = 0.001037, k = 0.031041
        41        36        43     1      108.923805      408.723159    ;  uncertainty theta = 0.001037, k = 0.031041
        42        37        46     1      119.031021      281.368190    ;  uncertainty theta = 0.003041, k = 0.086573
        43        49        50     1      108.923805      408.723064    ;  uncertainty theta = 0.001037, k = 0.031041
        43        49        51     1      108.923805      408.723064    ;  uncertainty theta = 0.001037, k = 0.031041
        43        49        54     1      109.361328      608.117484    ;  uncertainty theta = 0.001858, k = 0.123060
        44        43        45     1      104.148109      315.320671    ;  uncertainty theta = 0.002590, k = 0.057682
        44        43        49     1      108.647804      401.629206    ;  uncertainty theta = 0.001491, k = 0.045044
        45        43        49     1      108.647804      401.629206    ;  uncertainty theta = 0.001491, k = 0.045044
        46        52        53     1      119.480392      268.196054    ;  uncertainty theta = 0.001102, k = 0.060270
        46        52        57     1      118.648392      523.978742    ;  uncertainty theta = 0.002224, k = 0.123137
        46        63        62     1      115.867569      406.844362    ;  uncertainty theta = 0.004649, k = 0.240285
        46        63        64     1      114.640488      420.168381    ;  uncertainty theta = 0.007440, k = 0.248207
        49        54        55     1      108.921654      411.595893    ;  uncertainty theta = 0.001154, k = 0.062481
        49        54        56     1      108.921654      411.595893    ;  uncertainty theta = 0.001154, k = 0.062481
        50        49        51     1      104.333008      313.158859    ;  uncertainty theta = 0.002478, k = 0.062600
        50        49        54     1      107.863991      396.660418    ;  uncertainty theta = 0.001008, k = 0.062208
        51        49        54     1      107.863991      396.660418    ;  uncertainty theta = 0.001008, k = 0.062208
        52        46        63     1      120.262817      456.254264    ;  uncertainty theta = 0.001704, k = 0.113274
        52        57        58     1      120.030533      281.541875    ;  uncertainty theta = 0.000296, k = 0.043754
        52        57        59     1      120.684204      504.766664    ;  uncertainty theta = 0.004016, k = 0.115685
        53        52        57     1      120.927467      308.612583    ;  uncertainty theta = 0.001176, k = 0.034935
        55        54        56     1      105.426979      320.994059    ;  uncertainty theta = 0.002023, k = 0.045258
        57        59        60     1      119.737610      305.025130    ;  uncertainty theta = 0.003652, k = 0.083164
        58        57        59     1      119.840675      279.478189    ;  uncertainty theta = 0.001162, k = 0.041945
        61        62        63     1      108.889816      717.715543    ;  uncertainty theta = 0.002846, k = 0.104306
        61        62        69     1      108.586441      409.374324    ;  uncertainty theta = 0.001534, k = 0.108381
        61        62        70     1      108.586441      409.374324    ;  uncertainty theta = 0.001534, k = 0.108381
        61        66        65     1      107.718460      515.230494    ;  uncertainty theta = 0.003011, k = 0.152096
        62        61        66     1      109.613609      690.004906    ;  uncertainty theta = 0.002936, k = 0.144745
        62        61        67     1      109.717186      417.913965    ;  uncertainty theta = 0.002500, k = 0.060943
        62        61        68     1      109.717186      417.913965    ;  uncertainty theta = 0.002500, k = 0.060943
        62        63        64     1      119.004921      394.736293    ;  uncertainty theta = 0.006957, k = 0.068656
        63        62        69     1      108.044571      457.075186    ;  uncertainty theta = 0.001797, k = 0.100251
        63        62        70     1      108.044571      457.075186    ;  uncertainty theta = 0.001797, k = 0.100251
        63        64        65     1      117.245079      339.688979    ;  uncertainty theta = 0.010844, k = 0.274172
        63        64        73     1      122.828354      712.250219    ;  uncertainty theta = 0.001833, k = 0.097148
        64        65        66     1      113.631607      589.682819    ;  uncertainty theta = 0.006491, k = 0.231720
        64        65        71     1      107.663895      376.027136    ;  uncertainty theta = 0.005135, k = 0.100892
        64        65        72     1      107.663895      376.027136    ;  uncertainty theta = 0.005135, k = 0.100892
        65        64        73     1      121.531616      454.991709    ;  uncertainty theta = 0.002845, k = 0.135639
        66        61        67     1      107.470703      463.678572    ;  uncertainty theta = 0.002079, k = 0.044629
        66        61        68     1      107.470703      463.678572    ;  uncertainty theta = 0.002079, k = 0.044629
        66        65        71     1      108.052574      442.474854    ;  uncertainty theta = 0.003073, k = 0.154101
        66        65        72     1      108.052574      442.474854    ;  uncertainty theta = 0.003073, k = 0.154101
        67        61        68     1      108.000916      317.850760    ;  uncertainty theta = 0.003566, k = 0.063773
        69        62        70     1      106.322899      319.671045    ;  uncertainty theta = 0.001104, k = 0.103976
        71        65        72     1      107.167358      315.212106    ;  uncertainty theta = 0.004368, k = 0.095823

[ dihedrals ] ; propers for gromacs 4.5 or higher, use funct 9
;       ai        aj        ak        al funct           phase               k        pn
         1         5         7         8     9        0.000000       -0.719318         1    ;  uncertainty k = 0.444691
         1         5         7         8     9      180.000000        6.827135         2    ;  uncertainty k = 0.793821
         1         5         7         8     9        0.000000        1.847964         3    ;  uncertainty k = 0.175876
         1         5         7         8     9      180.000000        0.561429         4    ;  uncertainty k = 0.272301
         1         5         7         9     9        0.000000        6.564236         1    ;  uncertainty k = 0.730976
         1         5         7         9     9      180.000000       10.882230         2    ;  uncertainty k = 0.271174
         1         5         7         9     9        0.000000        1.797450         3    ;  uncertainty k = 0.074608
         1         5         7         9     9      180.000000       -0.307230         4    ;  uncertainty k = 0.362348
         2         1         5         6     9        0.000000        0.326532         1    ;  uncertainty k = 0.130575
         2         1         5         6     9      180.000000        3.580846         2    ;  uncertainty k = 0.150349
         2         1         5         6     9        0.000000        0.496853         3    ;  uncertainty k = 0.061068
         2         1         5         6     9      180.000000        0.159073         4    ;  uncertainty k = 0.042397
         2         1         5         7     9        0.000000       -0.987141         1    ;  uncertainty k = 0.287749
         2         1         5         7     9      180.000000        1.715337         2    ;  uncertainty k = 0.242814
         2         1         5         7     9        0.000000        0.297998         3    ;  uncertainty k = 0.030371
         2         1         5         7     9      180.000000       -0.046045         4    ;  uncertainty k = 0.041242
         3         1         5         6     9        0.000000        0.326532         1    ;  uncertainty k = 0.130575
         3         1         5         6     9      180.000000        3.580846         2    ;  uncertainty k = 0.150349
         3         1         5         6     9        0.000000        0.496853         3    ;  uncertainty k = 0.061068
         3         1         5         6     9      180.000000        0.159073         4    ;  uncertainty k = 0.042397
         3         1         5         7     9        0.000000       -0.987141         1    ;  uncertainty k = 0.287749
         3         1         5         7     9      180.000000        1.715337         2    ;  uncertainty k = 0.242814
         3         1         5         7     9        0.000000        0.297998         3    ;  uncertainty k = 0.030371
         3         1         5         7     9      180.000000       -0.046045         4    ;  uncertainty k = 0.041242
         4         1         5         6     9        0.000000        0.326532         1    ;  uncertainty k = 0.130575
         4         1         5         6     9      180.000000        3.580846         2    ;  uncertainty k = 0.150349
         4         1         5         6     9        0.000000        0.496853         3    ;  uncertainty k = 0.061068
         4         1         5         6     9      180.000000        0.159073         4    ;  uncertainty k = 0.042397
         4         1         5         7     9        0.000000       -0.987141         1    ;  uncertainty k = 0.287749
         4         1         5         7     9      180.000000        1.715337         2    ;  uncertainty k = 0.242814
         4         1         5         7     9        0.000000        0.297998         3    ;  uncertainty k = 0.030371
         4         1         5         7     9      180.000000       -0.046045         4    ;  uncertainty k = 0.041242
         5         7         9        10     9        0.000000        0.673190         1    ;  uncertainty k = 0.451446
         5         7         9        10     9      180.000000       -0.483797         2    ;  uncertainty k = 0.214923
         5         7         9        10     9        0.000000       -0.049722         3    ;  uncertainty k = 0.094428
         5         7         9        10     9      180.000000        0.206578         4    ;  uncertainty k = 0.148130
         5         7         9        11     9        0.000000        3.180514         1    ;  uncertainty k = 1.157529
         5         7         9        11     9      180.000000       -0.329367         2    ;  uncertainty k = 0.233157
         5         7         9        11     9        0.000000        0.024204         3    ;  uncertainty k = 0.231957
         5         7         9        11     9      180.000000        0.586908         4    ;  uncertainty k = 0.120769
         5         7         9        13     9        0.000000       -0.380436         1    ;  uncertainty k = 0.142963
         5         7         9        13     9      180.000000       -0.107031         2    ;  uncertainty k = 0.285790
         5         7         9        13     9        0.000000        0.330771         3    ;  uncertainty k = 0.193628
         5         7         9        13     9      180.000000        0.546802         4    ;  uncertainty k = 0.084671
         6         5         7         8     9        0.000000        4.249161         1    ;  uncertainty k = 0.379485
         6         5         7         8     9      180.000000       16.872695         2    ;  uncertainty k = 0.065678
         6         5         7         8     9        0.000000        1.027067         3    ;  uncertainty k = 0.234732
         6         5         7         8     9      180.000000       -0.366950         4    ;  uncertainty k = 0.092394
         6         5         7         9     9        0.000000        9.060147         1    ;  uncertainty k = 0.596169
         6         5         7         9     9      180.000000       17.377883         2    ;  uncertainty k = 0.143241
         6         5         7         9     9        0.000000        0.439552         3    ;  uncertainty k = 0.127544
         6         5         7         9     9      180.000000       -0.656366         4    ;  uncertainty k = 0.225470
         7         9        11        12     9        0.000000       -0.464787         1    ;  uncertainty k = 0.317316
         7         9        11        12     9      180.000000       -0.533075         2    ;  uncertainty k = 0.690221
         7         9        11        12     9        0.000000        0.725956         3    ;  uncertainty k = 0.201532
         7         9        11        12     9      180.000000       -0.178686         4    ;  uncertainty k = 0.089549
         7         9        11        16     9        0.000000       -3.063991         1    ;  uncertainty k = 1.250940
         7         9        11        16     9      180.000000       -0.682496         2    ;  uncertainty k = 0.425403
         7         9        11        16     9        0.000000        0.924527         3    ;  uncertainty k = 0.187029
         7         9        11        16     9      180.000000       -0.350198         4    ;  uncertainty k = 0.168794
         7         9        11        20     9        0.000000        0.177251         1    ;  uncertainty k = 0.746902
         7         9        11        20     9      180.000000       -0.624156         2    ;  uncertainty k = 0.788828
         7         9        11        20     9        0.000000        1.600977         3    ;  uncertainty k = 0.346594
         7         9        11        20     9      180.000000       -0.637356         4    ;  uncertainty k = 0.310004
         7         9        13        14     9        0.000000       -1.135580         1    ;  uncertainty k = 0.140856
         7         9        13        14     9      180.000000       -0.977834         2    ;  uncertainty k = 0.145134
         7         9        13        14     9        0.000000        1.043071         3    ;  uncertainty k = 0.103805
         7         9        13        14     9      180.000000       -0.224633         4    ;  uncertainty k = 0.175797
         7         9        13        15     9        0.000000       -1.135580         1    ;  uncertainty k = 0.140856
         7         9        13        15     9      180.000000       -0.977834         2    ;  uncertainty k = 0.145134
         7         9        13        15     9        0.000000        1.043071         3    ;  uncertainty k = 0.103805
         7         9        13        15     9      180.000000       -0.224633         4    ;  uncertainty k = 0.175797
         7         9        13        19     9        0.000000       -1.530754         1    ;  uncertainty k = 0.475762
         7         9        13        19     9      180.000000       -1.330757         2    ;  uncertainty k = 0.640028
         7         9        13        19     9        0.000000        1.965079         3    ;  uncertainty k = 0.272575
         7         9        13        19     9      180.000000       -0.047228         4    ;  uncertainty k = 0.209121
         8         7         9        10     9        0.000000        1.615267         1    ;  uncertainty k = 0.349654
         8         7         9        10     9      180.000000       -0.419932         2    ;  uncertainty k = 0.383461
         8         7         9        10     9        0.000000        0.522848         3    ;  uncertainty k = 0.230461
         8         7         9        10     9      180.000000        0.041935         4    ;  uncertainty k = 0.079234
         8         7         9        11     9        0.000000        2.396530         1    ;  uncertainty k = 1.071634
         8         7         9        11     9      180.000000       -2.433379         2    ;  uncertainty k = 0.692961
         8         7         9        11     9        0.000000        0.603149         3    ;  uncertainty k = 0.190766
         8         7         9        11     9      180.000000        0.172558         4    ;  uncertainty k = 0.089493
         8         7         9        13     9        0.000000        2.412732         1    ;  uncertainty k = 0.727962
         8         7         9        13     9      180.000000       -1.144206         2    ;  uncertainty k = 0.178406
         8         7         9        13     9        0.000000        0.413338         3    ;  uncertainty k = 0.162067
         8         7         9        13     9      180.000000        0.140362         4    ;  uncertainty k = 0.046152
         9        11        16        17     9        0.000000       -0.746594         1    ;  uncertainty k = 0.606990
         9        11        16        17     9      180.000000        0.070627         2    ;  uncertainty k = 0.410305
         9        11        16        17     9        0.000000        0.325941         3    ;  uncertainty k = 0.064010
         9        11        16        17     9      180.000000       -0.240217         4    ;  uncertainty k = 0.174087
         9        11        16        18     9        0.000000       -0.746594         1    ;  uncertainty k = 0.606990
         9        11        16        18     9      180.000000        0.070627         2    ;  uncertainty k = 0.410305
         9        11        16        18     9        0.000000        0.325941         3    ;  uncertainty k = 0.064010
         9        11        16        18     9      180.000000       -0.240217         4    ;  uncertainty k = 0.174087
         9        11        16        22     9        0.000000       -2.721523         1    ;  uncertainty k = 2.037142
         9        11        16        22     9      180.000000       -1.994497         2    ;  uncertainty k = 0.706500
         9        11        16        22     9        0.000000        1.383758         3    ;  uncertainty k = 0.198115
         9        11        16        22     9      180.000000       -0.265515         4    ;  uncertainty k = 0.317177
         9        11        20        21     9        0.000000       18.922994         1    ;  uncertainty k = 0.298753
         9        11        20        21     9      180.000000       -3.432350         2    ;  uncertainty k = 0.393515
         9        11        20        21     9        0.000000        1.234355         3    ;  uncertainty k = 0.173337
         9        11        20        21     9      180.000000        0.343231         4    ;  uncertainty k = 0.075406
         9        13        19        24     9        0.000000        0.015961         1    ;  uncertainty k = 0.447291
         9        13        19        24     9      180.000000        1.479336         2    ;  uncertainty k = 0.197948
         9        13        19        24     9        0.000000        0.701691         3    ;  uncertainty k = 0.200767
         9        13        19        24     9      180.000000        0.342416         4    ;  uncertainty k = 0.070936
         9        13        19        47     9        0.000000        0.015961         1    ;  uncertainty k = 0.447288
         9        13        19        47     9      180.000000        1.479336         2    ;  uncertainty k = 0.197947
         9        13        19        47     9        0.000000        0.701691         3    ;  uncertainty k = 0.200768
         9        13        19        47     9      180.000000        0.342416         4    ;  uncertainty k = 0.070935
        10         9        11        12     9        0.000000        0.386005         1    ;  uncertainty k = 0.297791
        10         9        11        12     9      180.000000       -0.335124         2    ;  uncertainty k = 0.468728
        10         9        11        12     9        0.000000       -0.180620         3    ;  uncertainty k = 0.158635
        10         9        11        12     9      180.000000       -0.158597         4    ;  uncertainty k = 0.085571
        10         9        11        16     9        0.000000       -1.532420         1    ;  uncertainty k = 0.476672
        10         9        11        16     9      180.000000       -0.362009         2    ;  uncertainty k = 0.387921
        10         9        11        16     9        0.000000        0.096741         3    ;  uncertainty k = 0.093582
        10         9        11        16     9      180.000000       -0.220479         4    ;  uncertainty k = 0.064813
        10         9        11        20     9        0.000000       -0.963862         1    ;  uncertainty k = 0.487834
        10         9        11        20     9      180.000000       -0.431115         2    ;  uncertainty k = 0.551956
        10         9        11        20     9        0.000000        0.681317         3    ;  uncertainty k = 0.209680
        10         9        11        20     9      180.000000       -0.145731         4    ;  uncertainty k = 0.172707
        10         9        13        14     9        0.000000        1.003432         1    ;  uncertainty k = 0.142375
        10         9        13        14     9      180.000000       -0.763879         2    ;  uncertainty k = 0.190174
        10         9        13        14     9        0.000000       -0.150781         3    ;  uncertainty k = 0.200723
        10         9        13        14     9      180.000000       -0.028987         4    ;  uncertainty k = 0.020283
        10         9        13        15     9        0.000000        1.003432         1    ;  uncertainty k = 0.142375
        10         9        13        15     9      180.000000       -0.763879         2    ;  uncertainty k = 0.190174
        10         9        13        15     9        0.000000       -0.150781         3    ;  uncertainty k = 0.200723
        10         9        13        15     9      180.000000       -0.028987         4    ;  uncertainty k = 0.020283
        10         9        13        19     9        0.000000        0.663870         1    ;  uncertainty k = 0.280445
        10         9        13        19     9      180.000000       -0.659159         2    ;  uncertainty k = 0.292236
        10         9        13        19     9        0.000000        0.782258         3    ;  uncertainty k = 0.187761
        10         9        13        19     9      180.000000        0.056644         4    ;  uncertainty k = 0.060309
        11         9        13        14     9        0.000000       -0.833757         1    ;  uncertainty k = 0.318168
        11         9        13        14     9      180.000000       -0.513486         2    ;  uncertainty k = 0.291784
        11         9        13        14     9        0.000000        0.435444         3    ;  uncertainty k = 0.098110
        11         9        13        14     9      180.000000       -0.244629         4    ;  uncertainty k = 0.096307
        11         9        13        15     9        0.000000       -0.833757         1    ;  uncertainty k = 0.318168
        11         9        13        15     9      180.000000       -0.513486         2    ;  uncertainty k = 0.291784
        11         9        13        15     9        0.000000        0.435444         3    ;  uncertainty k = 0.098110
        11         9        13        15     9      180.000000       -0.244629         4    ;  uncertainty k = 0.096307
        11         9        13        19     9        0.000000        0.127953         1    ;  uncertainty k = 1.200013
        11         9        13        19     9      180.000000       -0.422221         2    ;  uncertainty k = 0.434810
        11         9        13        19     9        0.000000        1.156386         3    ;  uncertainty k = 0.343960
        11         9        13        19     9      180.000000       -0.125143         4    ;  uncertainty k = 0.138626
        11        16        22        23     9        0.000000        2.457270         1    ;  uncertainty k = 1.488027
        11        16        22        23     9      180.000000       -0.773804         2    ;  uncertainty k = 0.287470
        11        16        22        23     9        0.000000        0.533505         3    ;  uncertainty k = 0.104350
        11        16        22        23     9      180.000000       -0.282229         4    ;  uncertainty k = 0.192333
        11        16        22        26     9        0.000000        2.457270         1    ;  uncertainty k = 1.488027
        11        16        22        26     9      180.000000       -0.773804         2    ;  uncertainty k = 0.287470
        11        16        22        26     9        0.000000        0.533505         3    ;  uncertainty k = 0.104350
        11        16        22        26     9      180.000000       -0.282229         4    ;  uncertainty k = 0.192333
        11        16        22        27     9        0.000000       -0.610271         1    ;  uncertainty k = 0.781642
        11        16        22        27     9      180.000000       -0.760678         2    ;  uncertainty k = 0.842420
        11        16        22        27     9        0.000000        0.773822         3    ;  uncertainty k = 0.111826
        11        16        22        27     9      180.000000       -0.197817         4    ;  uncertainty k = 0.143818
        12        11         9        13     9        0.000000       -1.470180         1    ;  uncertainty k = 0.388134
        12        11         9        13     9      180.000000       -0.189690         2    ;  uncertainty k = 0.339954
        12        11         9        13     9        0.000000        0.262476         3    ;  uncertainty k = 0.130680
        12        11         9        13     9      180.000000       -0.175710         4    ;  uncertainty k = 0.057046
        12        11        16        17     9        0.000000       -0.190940         1    ;  uncertainty k = 0.376092
        12        11        16        17     9      180.000000        0.086053         2    ;  uncertainty k = 0.282313
        12        11        16        17     9        0.000000        0.087055         3    ;  uncertainty k = 0.123049
        12        11        16        17     9      180.000000       -0.006018         4    ;  uncertainty k = 0.068267
        12        11        16        18     9        0.000000       -0.190940         1    ;  uncertainty k = 0.376092
        12        11        16        18     9      180.000000        0.086053         2    ;  uncertainty k = 0.282313
        12        11        16        18     9        0.000000        0.087055         3    ;  uncertainty k = 0.123049
        12        11        16        18     9      180.000000       -0.006018         4    ;  uncertainty k = 0.068267
        12        11        16        22     9        0.000000       -0.686426         1    ;  uncertainty k = 0.601337
        12        11        16        22     9      180.000000       -2.837728         2    ;  uncertainty k = 0.870717
        12        11        16        22     9        0.000000        0.757431         3    ;  uncertainty k = 0.338154
        12        11        16        22     9      180.000000       -0.084817         4    ;  uncertainty k = 0.123537
        12        11        20        21     9        0.000000       13.155354         1    ;  uncertainty k = 0.207070
        12        11        20        21     9      180.000000       -1.919911         2    ;  uncertainty k = 0.136380
        12        11        20        21     9        0.000000        0.850953         3    ;  uncertainty k = 0.240363
        12        11        20        21     9      180.000000        0.270513         4    ;  uncertainty k = 0.106751
        13         9        11        16     9        0.000000       -3.571868         1    ;  uncertainty k = 0.805517
        13         9        11        16     9      180.000000        0.257577         2    ;  uncertainty k = 0.452772
        13         9        11        16     9        0.000000        0.661496         3    ;  uncertainty k = 0.214901
        13         9        11        16     9      180.000000       -0.509714         4    ;  uncertainty k = 0.205263
        13         9        11        20     9        0.000000       -2.882812         1    ;  uncertainty k = 0.437233
        13         9        11        20     9      180.000000        0.485460         2    ;  uncertainty k = 0.456214
        13         9        11        20     9        0.000000        1.153035         3    ;  uncertainty k = 0.206076
        13         9        11        20     9      180.000000       -0.393370         4    ;  uncertainty k = 0.109330
        13        19        24        25     9        0.000000       -0.263120         1    ;  uncertainty k = 0.264083
        13        19        24        25     9      180.000000        7.632151         2    ;  uncertainty k = 0.140015
        13        19        24        25     9        0.000000        0.567010         3    ;  uncertainty k = 0.309115
        13        19        24        25     9      180.000000        0.910084         4    ;  uncertainty k = 0.163563
        13        19        24        28     9        0.000000        0.110074         1    ;  uncertainty k = 0.214268
        13        19        24        28     9      180.000000        9.904684         2    ;  uncertainty k = 0.364719
        13        19        24        28     9        0.000000        1.390292         3    ;  uncertainty k = 0.243449
        13        19        24        28     9      180.000000        1.740266         4    ;  uncertainty k = 0.150935
        13        19        47        38     9        0.000000        0.110074         1    ;  uncertainty k = 0.214267
        13        19        47        38     9      180.000000        9.904686         2    ;  uncertainty k = 0.364720
        13        19        47        38     9        0.000000        1.390292         3    ;  uncertainty k = 0.243448
        13        19        47        38     9      180.000000        1.740266         4    ;  uncertainty k = 0.150935
        13        19        47        48     9        0.000000       -0.263121         1    ;  uncertainty k = 0.264083
        13        19        47        48     9      180.000000        7.632152         2    ;  uncertainty k = 0.140016
        13        19        47        48     9        0.000000        0.567011         3    ;  uncertainty k = 0.309115
        13        19        47        48     9      180.000000        0.910084         4    ;  uncertainty k = 0.163562
        14        13        19        24     9        0.000000       -0.039094         1    ;  uncertainty k = 0.264408
        14        13        19        24     9      180.000000        2.012165         2    ;  uncertainty k = 0.154154
        14        13        19        24     9        0.000000        0.435444         3    ;  uncertainty k = 0.052440
        14        13        19        24     9      180.000000        0.245682         4    ;  uncertainty k = 0.058980
        14        13        19        47     9        0.000000       -0.039094         1    ;  uncertainty k = 0.264407
        14        13        19        47     9      180.000000        2.012165         2    ;  uncertainty k = 0.154152
        14        13        19        47     9        0.000000        0.435445         3    ;  uncertainty k = 0.052439
        14        13        19        47     9      180.000000        0.245682         4    ;  uncertainty k = 0.058979
        15        13        19        24     9        0.000000       -0.039094         1    ;  uncertainty k = 0.264408
        15        13        19        24     9      180.000000        2.012165         2    ;  uncertainty k = 0.154154
        15        13        19        24     9        0.000000        0.435444         3    ;  uncertainty k = 0.052440
        15        13        19        24     9      180.000000        0.245682         4    ;  uncertainty k = 0.058980
        15        13        19        47     9        0.000000       -0.039094         1    ;  uncertainty k = 0.264407
        15        13        19        47     9      180.000000        2.012165         2    ;  uncertainty k = 0.154152
        15        13        19        47     9        0.000000        0.435445         3    ;  uncertainty k = 0.052439
        15        13        19        47     9      180.000000        0.245682         4    ;  uncertainty k = 0.058979
        16        11        20        21     9        0.000000       16.389838         1    ;  uncertainty k = 0.301224
        16        11        20        21     9      180.000000       -3.672201         2    ;  uncertainty k = 0.592037
        16        11        20        21     9        0.000000        1.291159         3    ;  uncertainty k = 0.170917
        16        11        20        21     9      180.000000        0.422890         4    ;  uncertainty k = 0.078252
        16        22        27        30     9        0.000000       -0.596862         1    ;  uncertainty k = 0.427528
        16        22        27        30     9      180.000000        0.815726         2    ;  uncertainty k = 0.444258
        16        22        27        30     9        0.000000        0.909701         3    ;  uncertainty k = 0.200731
        16        22        27        30     9      180.000000       -0.096230         4    ;  uncertainty k = 0.072578
        16        22        27        33     9        0.000000        0.810055         1    ;  uncertainty k = 0.615616
        16        22        27        33     9      180.000000       -0.187272         2    ;  uncertainty k = 0.803031
        16        22        27        33     9        0.000000        1.318117         3    ;  uncertainty k = 0.234002
        16        22        27        33     9      180.000000       -0.073902         4    ;  uncertainty k = 0.198834
        16        22        27        54     9        0.000000       -0.596862         1    ;  uncertainty k = 0.427530
        16        22        27        54     9      180.000000        0.815727         2    ;  uncertainty k = 0.444257
        16        22        27        54     9        0.000000        0.909701         3    ;  uncertainty k = 0.200732
        16        22        27        54     9      180.000000       -0.096230         4    ;  uncertainty k = 0.072578
        17        16        11        20     9        0.000000       -0.514289         1    ;  uncertainty k = 0.473599
        17        16        11        20     9      180.000000       -0.198718         2    ;  uncertainty k = 0.779969
        17        16        11        20     9        0.000000        0.827571         3    ;  uncertainty k = 0.290358
        17        16        11        20     9      180.000000       -0.067448         4    ;  uncertainty k = 0.211703
        17        16        22        23     9        0.000000        0.370280         1    ;  uncertainty k = 0.636238
        17        16        22        23     9      180.000000       -0.132100         2    ;  uncertainty k = 0.238132
        17        16        22        23     9        0.000000        0.259720         3    ;  uncertainty k = 0.102797
        17        16        22        23     9      180.000000        0.015971         4    ;  uncertainty k = 0.168575
        17        16        22        26     9        0.000000        0.370280         1    ;  uncertainty k = 0.636238
        17        16        22        26     9      180.000000       -0.132100         2    ;  uncertainty k = 0.238132
        17        16        22        26     9        0.000000        0.259720         3    ;  uncertainty k = 0.102797
        17        16        22        26     9      180.000000        0.015971         4    ;  uncertainty k = 0.168575
        17        16        22        27     9        0.000000        0.780821         1    ;  uncertainty k = 0.657136
        17        16        22        27     9      180.000000       -1.003101         2    ;  uncertainty k = 0.233327
        17        16        22        27     9        0.000000        0.865805         3    ;  uncertainty k = 0.136334
        17        16        22        27     9      180.000000       -0.082204         4    ;  uncertainty k = 0.175197
        18        16        11        20     9        0.000000       -0.514289         1    ;  uncertainty k = 0.473599
        18        16        11        20     9      180.000000       -0.198718         2    ;  uncertainty k = 0.779969
        18        16        11        20     9        0.000000        0.827571         3    ;  uncertainty k = 0.290358
        18        16        11        20     9      180.000000       -0.067448         4    ;  uncertainty k = 0.211703
        18        16        22        23     9        0.000000        0.370280         1    ;  uncertainty k = 0.636238
        18        16        22        23     9      180.000000       -0.132100         2    ;  uncertainty k = 0.238132
        18        16        22        23     9        0.000000        0.259720         3    ;  uncertainty k = 0.102797
        18        16        22        23     9      180.000000        0.015971         4    ;  uncertainty k = 0.168575
        18        16        22        26     9        0.000000        0.370280         1    ;  uncertainty k = 0.636238
        18        16        22        26     9      180.000000       -0.132100         2    ;  uncertainty k = 0.238132
        18        16        22        26     9        0.000000        0.259720         3    ;  uncertainty k = 0.102797
        18        16        22        26     9      180.000000        0.015971         4    ;  uncertainty k = 0.168575
        18        16        22        27     9        0.000000        0.780821         1    ;  uncertainty k = 0.657136
        18        16        22        27     9      180.000000       -1.003101         2    ;  uncertainty k = 0.233327
        18        16        22        27     9        0.000000        0.865805         3    ;  uncertainty k = 0.136334
        18        16        22        27     9      180.000000       -0.082204         4    ;  uncertainty k = 0.175197
        19        24        28        29     9        0.000000       -0.127667         1    ;  uncertainty k = 0.303255
        19        24        28        29     9      180.000000       12.478619         2    ;  uncertainty k = 0.567057
        19        24        28        29     9        0.000000        1.533163         3    ;  uncertainty k = 0.276196
        19        24        28        29     9      180.000000        1.474302         4    ;  uncertainty k = 0.234352
        19        24        28        34     9        0.000000       -0.053166         1    ;  uncertainty k = 0.191079
        19        24        28        34     9      180.000000        8.783283         2    ;  uncertainty k = 0.607469
        19        24        28        34     9        0.000000       -0.050043         3    ;  uncertainty k = 0.446776
        19        24        28        34     9      180.000000        1.273740         4    ;  uncertainty k = 0.296894
        19        47        38        34     9        0.000000       -0.053167         1    ;  uncertainty k = 0.191078
        19        47        38        34     9      180.000000        8.783284         2    ;  uncertainty k = 0.607468
        19        47        38        34     9        0.000000       -0.050044         3    ;  uncertainty k = 0.446777
        19        47        38        34     9      180.000000        1.273740         4    ;  uncertainty k = 0.296895
        19        47        38        39     9        0.000000       -0.127666         1    ;  uncertainty k = 0.303255
        19        47        38        39     9      180.000000       12.478619         2    ;  uncertainty k = 0.567057
        19        47        38        39     9        0.000000        1.533163         3    ;  uncertainty k = 0.276196
        19        47        38        39     9      180.000000        1.474302         4    ;  uncertainty k = 0.234352
        20        11        16        22     9        0.000000        4.304522         1    ;  uncertainty k = 1.001860
        20        11        16        22     9      180.000000       -2.577612         2    ;  uncertainty k = 0.965948
        20        11        16        22     9        0.000000        1.229514         3    ;  uncertainty k = 0.306165
        20        11        16        22     9      180.000000       -0.540715         4    ;  uncertainty k = 0.252532
        22        27        30        31     9        0.000000       -0.637617         1    ;  uncertainty k = 0.249630
        22        27        30        31     9      180.000000       -1.889786         2    ;  uncertainty k = 0.233638
        22        27        30        31     9        0.000000        0.576613         3    ;  uncertainty k = 0.152699
        22        27        30        31     9      180.000000       -0.207783         4    ;  uncertainty k = 0.133097
        22        27        30        32     9        0.000000       -0.637617         1    ;  uncertainty k = 0.249630
        22        27        30        32     9      180.000000       -1.889786         2    ;  uncertainty k = 0.233638
        22        27        30        32     9        0.000000        0.576613         3    ;  uncertainty k = 0.152699
        22        27        30        32     9      180.000000       -0.207783         4    ;  uncertainty k = 0.133097
        22        27        30        36     9        0.000000       -0.291173         1    ;  uncertainty k = 0.466014
        22        27        30        36     9      180.000000       -1.071449         2    ;  uncertainty k = 0.617805
        22        27        30        36     9        0.000000        1.044773         3    ;  uncertainty k = 0.400081
        22        27        30        36     9      180.000000        0.027661         4    ;  uncertainty k = 0.256309
        22        27        33        37     9        0.000000        0.579874         1    ;  uncertainty k = 0.618617
        22        27        33        37     9      180.000000        2.042337         2    ;  uncertainty k = 0.507241
        22        27        33        37     9        0.000000        0.666007         3    ;  uncertainty k = 0.222519
        22        27        33        37     9      180.000000        0.219666         4    ;  uncertainty k = 0.105596
        22        27        33        59     9        0.000000       -0.001803         1    ;  uncertainty k = 0.481404
        22        27        33        59     9      180.000000        2.110344         2    ;  uncertainty k = 0.564348
        22        27        33        59     9        0.000000        0.680566         3    ;  uncertainty k = 0.241540
        22        27        33        59     9      180.000000        0.200674         4    ;  uncertainty k = 0.123104
        22        27        54        49     9        0.000000       -0.291174         1    ;  uncertainty k = 0.466014
        22        27        54        49     9      180.000000       -1.071450         2    ;  uncertainty k = 0.617805
        22        27        54        49     9        0.000000        1.044773         3    ;  uncertainty k = 0.400082
        22        27        54        49     9      180.000000        0.027662         4    ;  uncertainty k = 0.256310
        22        27        54        55     9        0.000000       -0.637619         1    ;  uncertainty k = 0.249629
        22        27        54        55     9      180.000000       -1.889788         2    ;  uncertainty k = 0.233638
        22        27        54        55     9        0.000000        0.576613         3    ;  uncertainty k = 0.152698
        22        27        54        55     9      180.000000       -0.207782         4    ;  uncertainty k = 0.133097
        22        27        54        56     9        0.000000       -0.637619         1    ;  uncertainty k = 0.249629
        22        27        54        56     9      180.000000       -1.889788         2    ;  uncertainty k = 0.233638
        22        27        54        56     9        0.000000        0.576613         3    ;  uncertainty k = 0.152698
        22        27        54        56     9      180.000000       -0.207782         4    ;  uncertainty k = 0.133097
        23        22        27        30     9        0.000000       -0.557975         1    ;  uncertainty k = 1.543818
        23        22        27        30     9      180.000000        0.367514         2    ;  uncertainty k = 0.539123
        23        22        27        30     9        0.000000        0.524651         3    ;  uncertainty k = 0.176058
        23        22        27        30     9      180.000000       -0.110701         4    ;  uncertainty k = 0.078103
        23        22        27        33     9        0.000000        3.226313         1    ;  uncertainty k = 1.075447
        23        22        27        33     9      180.000000        0.193704         2    ;  uncertainty k = 0.269123
        23        22        27        33     9        0.000000        0.634847         3    ;  uncertainty k = 0.409145
        23        22        27        33     9      180.000000       -0.151436         4    ;  uncertainty k = 0.115801
        23        22        27        54     9        0.000000       -0.557975         1    ;  uncertainty k = 1.543818
        23        22        27        54     9      180.000000        0.367514         2    ;  uncertainty k = 0.539122
        23        22        27        54     9        0.000000        0.524652         3    ;  uncertainty k = 0.176057
        23        22        27        54     9      180.000000       -0.110700         4    ;  uncertainty k = 0.078104
        24        19        47        38     9        0.000000       -0.194148         1    ;  uncertainty k = 0.229850
        24        19        47        38     9      180.000000       11.992983         2    ;  uncertainty k = 0.370745
        24        19        47        38     9        0.000000       -0.300681         3    ;  uncertainty k = 0.435491
        24        19        47        38     9      180.000000        0.903339         4    ;  uncertainty k = 0.359219
        24        19        47        48     9        0.000000        0.216233         1    ;  uncertainty k = 0.175925
        24        19        47        48     9      180.000000        7.293882         2    ;  uncertainty k = 0.645817
        24        19        47        48     9        0.000000        1.519205         3    ;  uncertainty k = 0.416345
        24        19        47        48     9      180.000000        1.640671         4    ;  uncertainty k = 0.160063
        24        28        34        35     9        0.000000        0.113274         1    ;  uncertainty k = 0.163886
        24        28        34        35     9      180.000000        5.570069         2    ;  uncertainty k = 0.658049
        24        28        34        35     9        0.000000        1.285226         3    ;  uncertainty k = 0.310395
        24        28        34        35     9      180.000000        1.458916         4    ;  uncertainty k = 0.148552
        24        28        34        38     9        0.000000       -0.020920         1    ;  uncertainty k = 0.157045
        24        28        34        38     9      180.000000        9.170649         2    ;  uncertainty k = 0.439327
        24        28        34        38     9        0.000000       -0.195729         3    ;  uncertainty k = 0.474557
        24        28        34        38     9      180.000000        1.239477         4    ;  uncertainty k = 0.264396
        25        24        19        47     9        0.000000        0.216234         1    ;  uncertainty k = 0.175926
        25        24        19        47     9      180.000000        7.293882         2    ;  uncertainty k = 0.645818
        25        24        19        47     9        0.000000        1.519205         3    ;  uncertainty k = 0.416346
        25        24        19        47     9      180.000000        1.640671         4    ;  uncertainty k = 0.160063
        25        24        28        29     9        0.000000       -0.338324         1    ;  uncertainty k = 0.125407
        25        24        28        29     9      180.000000        9.023859         2    ;  uncertainty k = 0.342385
        25        24        28        29     9        0.000000        0.780161         3    ;  uncertainty k = 0.283674
        25        24        28        29     9      180.000000        0.968908         4    ;  uncertainty k = 0.220959
        25        24        28        34     9        0.000000        0.000249         1    ;  uncertainty k = 0.206465
        25        24        28        34     9      180.000000        5.882344         2    ;  uncertainty k = 0.714480
        25        24        28        34     9        0.000000        1.305116         3    ;  uncertainty k = 0.360333
        25        24        28        34     9      180.000000        1.568343         4    ;  uncertainty k = 0.171881
        26        22        27        30     9        0.000000       -0.557975         1    ;  uncertainty k = 1.543818
        26        22        27        30     9      180.000000        0.367514         2    ;  uncertainty k = 0.539123
        26        22        27        30     9        0.000000        0.524651         3    ;  uncertainty k = 0.176058
        26        22        27        30     9      180.000000       -0.110701         4    ;  uncertainty k = 0.078103
        26        22        27        33     9        0.000000        3.226313         1    ;  uncertainty k = 1.075447
        26        22        27        33     9      180.000000        0.193704         2    ;  uncertainty k = 0.269123
        26        22        27        33     9        0.000000        0.634847         3    ;  uncertainty k = 0.409145
        26        22        27        33     9      180.000000       -0.151436         4    ;  uncertainty k = 0.115801
        26        22        27        54     9        0.000000       -0.557975         1    ;  uncertainty k = 1.543818
        26        22        27        54     9      180.000000        0.367514         2    ;  uncertainty k = 0.539122
        26        22        27        54     9        0.000000        0.524652         3    ;  uncertainty k = 0.176057
        26        22        27        54     9      180.000000       -0.110700         4    ;  uncertainty k = 0.078104
        27        30        36        40     9        0.000000       -0.408837         1    ;  uncertainty k = 0.519953
        27        30        36        40     9      180.000000       -1.102208         2    ;  uncertainty k = 0.250428
        27        30        36        40     9        0.000000        0.415831         3    ;  uncertainty k = 0.191530
        27        30        36        40     9      180.000000       -0.069370         4    ;  uncertainty k = 0.099605
        27        30        36        41     9        0.000000       -0.408837         1    ;  uncertainty k = 0.519953
        27        30        36        41     9      180.000000       -1.102208         2    ;  uncertainty k = 0.250428
        27        30        36        41     9        0.000000        0.415831         3    ;  uncertainty k = 0.191530
        27        30        36        41     9      180.000000       -0.069370         4    ;  uncertainty k = 0.099605
        27        30        36        43     9        0.000000       -4.126201         1    ;  uncertainty k = 0.854874
        27        30        36        43     9      180.000000       -1.152058         2    ;  uncertainty k = 0.720372
        27        30        36        43     9        0.000000        1.571188         3    ;  uncertainty k = 0.127553
        27        30        36        43     9      180.000000       -0.993223         4    ;  uncertainty k = 0.071732
        27        33        37        42     9        0.000000       -0.262738         1    ;  uncertainty k = 0.355057
        27        33        37        42     9      180.000000        7.462925         2    ;  uncertainty k = 0.331450
        27        33        37        42     9        0.000000        0.676647         3    ;  uncertainty k = 0.305234
        27        33        37        42     9      180.000000        1.058048         4    ;  uncertainty k = 0.241363
        27        33        37        46     9        0.000000        0.082020         1    ;  uncertainty k = 0.243481
        27        33        37        46     9      180.000000        8.774132         2    ;  uncertainty k = 0.436724
        27        33        37        46     9        0.000000        1.298371         3    ;  uncertainty k = 0.227170
        27        33        37        46     9      180.000000        1.695764         4    ;  uncertainty k = 0.219334
        27        33        59        57     9        0.000000        0.272619         1    ;  uncertainty k = 0.366474
        27        33        59        57     9      180.000000        9.097809         2    ;  uncertainty k = 0.779549
        27        33        59        57     9        0.000000        1.385301         3    ;  uncertainty k = 0.375677
        27        33        59        57     9      180.000000        1.683412         4    ;  uncertainty k = 0.243624
        27        33        59        60     9        0.000000       -0.193712         1    ;  uncertainty k = 0.284040
        27        33        59        60     9      180.000000        7.368219         2    ;  uncertainty k = 0.402209
        27        33        59        60     9        0.000000        0.758686         3    ;  uncertainty k = 0.275106
        27        33        59        60     9      180.000000        1.019752         4    ;  uncertainty k = 0.265148
        27        54        49        43     9        0.000000       -4.126199         1    ;  uncertainty k = 0.854874
        27        54        49        43     9      180.000000       -1.152056         2    ;  uncertainty k = 0.720371
        27        54        49        43     9        0.000000        1.571188         3    ;  uncertainty k = 0.127553
        27        54        49        43     9      180.000000       -0.993223         4    ;  uncertainty k = 0.071732
        27        54        49        50     9        0.000000       -0.408838         1    ;  uncertainty k = 0.519955
        27        54        49        50     9      180.000000       -1.102208         2    ;  uncertainty k = 0.250429
        27        54        49        50     9        0.000000        0.415831         3    ;  uncertainty k = 0.191529
        27        54        49        50     9      180.000000       -0.069371         4    ;  uncertainty k = 0.099605
        27        54        49        51     9        0.000000       -0.408838         1    ;  uncertainty k = 0.519955
        27        54        49        51     9      180.000000       -1.102208         2    ;  uncertainty k = 0.250429
        27        54        49        51     9        0.000000        0.415831         3    ;  uncertainty k = 0.191529
        27        54        49        51     9      180.000000       -0.069371         4    ;  uncertainty k = 0.099605
        28        24        19        47     9        0.000000       -0.194148         1    ;  uncertainty k = 0.229850
        28        24        19        47     9      180.000000       11.992984         2    ;  uncertainty k = 0.370744
        28        24        19        47     9        0.000000       -0.300681         3    ;  uncertainty k = 0.435492
        28        24        19        47     9      180.000000        0.903339         4    ;  uncertainty k = 0.359220
        28        34        38        39     9        0.000000       -0.058105         1    ;  uncertainty k = 0.253381
        28        34        38        39     9      180.000000       12.532833         2    ;  uncertainty k = 0.664664
        28        34        38        39     9        0.000000        1.588332         3    ;  uncertainty k = 0.317469
        28        34        38        39     9      180.000000        1.491709         4    ;  uncertainty k = 0.286719
        28        34        38        47     9        0.000000       -0.020922         1    ;  uncertainty k = 0.157047
        28        34        38        47     9      180.000000        9.170647         2    ;  uncertainty k = 0.439327
        28        34        38        47     9        0.000000       -0.195730         3    ;  uncertainty k = 0.474558
        28        34        38        47     9      180.000000        1.239476         4    ;  uncertainty k = 0.264396
        29        28        34        35     9        0.000000       -0.240771         1    ;  uncertainty k = 0.279190
        29        28        34        35     9      180.000000        8.519236         2    ;  uncertainty k = 0.364230
        29        28        34        35     9        0.000000        0.792415         3    ;  uncertainty k = 0.318593
        29        28        34        35     9      180.000000        0.989252         4    ;  uncertainty k = 0.224408
        29        28        34        38     9        0.000000       -0.058106         1    ;  uncertainty k = 0.253381
        29        28        34        38     9      180.000000       12.532832         2    ;  uncertainty k = 0.664665
        29        28        34        38     9        0.000000        1.588331         3    ;  uncertainty k = 0.317470
        29        28        34        38     9      180.000000        1.491709         4    ;  uncertainty k = 0.286719
        30        27        33        37     9        0.000000       -0.439003         1    ;  uncertainty k = 0.483589
        30        27        33        37     9      180.000000        2.349862         2    ;  uncertainty k = 0.416008
        30        27        33        37     9        0.000000        0.345411         3    ;  uncertainty k = 0.135235
        30        27        33        37     9      180.000000        0.172153         4    ;  uncertainty k = 0.063492
        30        27        33        59     9        0.000000       -0.434792         1    ;  uncertainty k = 0.458229
        30        27        33        59     9      180.000000        2.284160         2    ;  uncertainty k = 0.391467
        30        27        33        59     9        0.000000        0.443927         3    ;  uncertainty k = 0.152429
        30        27        33        59     9      180.000000        0.201168         4    ;  uncertainty k = 0.068879
        30        27        54        49     9        0.000000       -0.119676         1    ;  uncertainty k = 1.751484
        30        27        54        49     9      180.000000        0.922141         2    ;  uncertainty k = 0.344677
        30        27        54        49     9        0.000000        0.721570         3    ;  uncertainty k = 0.380102
        30        27        54        49     9      180.000000       -0.913471         4    ;  uncertainty k = 0.256897
        30        27        54        55     9        0.000000       -1.133213         1    ;  uncertainty k = 0.311045
        30        27        54        55     9      180.000000       -0.278650         2    ;  uncertainty k = 0.173303
        30        27        54        55     9        0.000000       -0.105053         3    ;  uncertainty k = 0.140833
        30        27        54        55     9      180.000000       -0.072665         4    ;  uncertainty k = 0.069240
        30        27        54        56     9        0.000000       -1.133213         1    ;  uncertainty k = 0.311045
        30        27        54        56     9      180.000000       -0.278650         2    ;  uncertainty k = 0.173303
        30        27        54        56     9        0.000000       -0.105053         3    ;  uncertainty k = 0.140833
        30        27        54        56     9      180.000000       -0.072665         4    ;  uncertainty k = 0.069240
        30        36        43        44     9        0.000000       -1.999805         1    ;  uncertainty k = 0.225318
        30        36        43        44     9      180.000000       -0.232324         2    ;  uncertainty k = 0.172198
        30        36        43        44     9        0.000000        0.488841         3    ;  uncertainty k = 0.205544
        30        36        43        44     9      180.000000       -0.107598         4    ;  uncertainty k = 0.052869
        30        36        43        45     9        0.000000       -1.999805         1    ;  uncertainty k = 0.225318
        30        36        43        45     9      180.000000       -0.232324         2    ;  uncertainty k = 0.172198
        30        36        43        45     9        0.000000        0.488841         3    ;  uncertainty k = 0.205544
        30        36        43        45     9      180.000000       -0.107598         4    ;  uncertainty k = 0.052869
        30        36        43        49     9        0.000000       -8.611498         1    ;  uncertainty k = 1.562644
        30        36        43        49     9      180.000000        1.369362         2    ;  uncertainty k = 0.438701
        30        36        43        49     9        0.000000        1.783440         3    ;  uncertainty k = 0.147500
        30        36        43        49     9      180.000000       -1.140308         4    ;  uncertainty k = 0.234597
        31        30        27        33     9        0.000000        1.064813         1    ;  uncertainty k = 0.635798
        31        30        27        33     9      180.000000       -0.185120         2    ;  uncertainty k = 0.473283
        31        30        27        33     9        0.000000        0.520980         3    ;  uncertainty k = 0.219282
        31        30        27        33     9      180.000000       -0.023163         4    ;  uncertainty k = 0.048879
        31        30        27        54     9        0.000000       -1.133213         1    ;  uncertainty k = 0.311045
        31        30        27        54     9      180.000000       -0.278648         2    ;  uncertainty k = 0.173304
        31        30        27        54     9        0.000000       -0.105053         3    ;  uncertainty k = 0.140833
        31        30        27        54     9      180.000000       -0.072664         4    ;  uncertainty k = 0.069240
        31        30        36        40     9        0.000000        1.865633         1    ;  uncertainty k = 0.151738
        31        30        36        40     9      180.000000       -0.051734         2    ;  uncertainty k = 0.121265
        31        30        36        40     9        0.000000        0.308088         3    ;  uncertainty k = 0.074080
        31        30        36        40     9      180.000000        0.151763         4    ;  uncertainty k = 0.037921
        31        30        36        41     9        0.000000        1.865633         1    ;  uncertainty k = 0.151738
        31        30        36        41     9      180.000000       -0.051734         2    ;  uncertainty k = 0.121265
        31        30        36        41     9        0.000000        0.308088         3    ;  uncertainty k = 0.074080
        31        30        36        41     9      180.000000        0.151763         4    ;  uncertainty k = 0.037921
        31        30        36        43     9        0.000000       -1.983969         1    ;  uncertainty k = 0.669414
        31        30        36        43     9      180.000000       -0.050872         2    ;  uncertainty k = 0.260863
        31        30        36        43     9        0.000000        0.508700         3    ;  uncertainty k = 0.104846
        31        30        36        43     9      180.000000       -0.031107         4    ;  uncertainty k = 0.060995
        32        30        27        33     9        0.000000        1.064813         1    ;  uncertainty k = 0.635798
        32        30        27        33     9      180.000000       -0.185120         2    ;  uncertainty k = 0.473283
        32        30        27        33     9        0.000000        0.520980         3    ;  uncertainty k = 0.219282
        32        30        27        33     9      180.000000       -0.023163         4    ;  uncertainty k = 0.048879
        32        30        27        54     9        0.000000       -1.133213         1    ;  uncertainty k = 0.311045
        32        30        27        54     9      180.000000       -0.278648         2    ;  uncertainty k = 0.173304
        32        30        27        54     9        0.000000       -0.105053         3    ;  uncertainty k = 0.140833
        32        30        27        54     9      180.000000       -0.072664         4    ;  uncertainty k = 0.069240
        32        30        36        40     9        0.000000        1.865633         1    ;  uncertainty k = 0.151738
        32        30        36        40     9      180.000000       -0.051734         2    ;  uncertainty k = 0.121265
        32        30        36        40     9        0.000000        0.308088         3    ;  uncertainty k = 0.074080
        32        30        36        40     9      180.000000        0.151763         4    ;  uncertainty k = 0.037921
        32        30        36        41     9        0.000000        1.865633         1    ;  uncertainty k = 0.151738
        32        30        36        41     9      180.000000       -0.051734         2    ;  uncertainty k = 0.121265
        32        30        36        41     9        0.000000        0.308088         3    ;  uncertainty k = 0.074080
        32        30        36        41     9      180.000000        0.151763         4    ;  uncertainty k = 0.037921
        32        30        36        43     9        0.000000       -1.983969         1    ;  uncertainty k = 0.669414
        32        30        36        43     9      180.000000       -0.050872         2    ;  uncertainty k = 0.260863
        32        30        36        43     9        0.000000        0.508700         3    ;  uncertainty k = 0.104846
        32        30        36        43     9      180.000000       -0.031107         4    ;  uncertainty k = 0.060995
        33        27        30        36     9        0.000000       -2.428117         1    ;  uncertainty k = 0.968666
        33        27        30        36     9      180.000000        0.797043         2    ;  uncertainty k = 0.303430
        33        27        30        36     9        0.000000        0.830477         3    ;  uncertainty k = 0.243378
        33        27        30        36     9      180.000000       -0.086941         4    ;  uncertainty k = 0.081235
        33        27        54        49     9        0.000000       -2.428117         1    ;  uncertainty k = 0.968666
        33        27        54        49     9      180.000000        0.797043         2    ;  uncertainty k = 0.303431
        33        27        54        49     9        0.000000        0.830477         3    ;  uncertainty k = 0.243378
        33        27        54        49     9      180.000000       -0.086941         4    ;  uncertainty k = 0.081234
        33        27        54        55     9        0.000000        1.064812         1    ;  uncertainty k = 0.635797
        33        27        54        55     9      180.000000       -0.185122         2    ;  uncertainty k = 0.473281
        33        27        54        55     9        0.000000        0.520980         3    ;  uncertainty k = 0.219282
        33        27        54        55     9      180.000000       -0.023163         4    ;  uncertainty k = 0.048880
        33        27        54        56     9        0.000000        1.064812         1    ;  uncertainty k = 0.635797
        33        27        54        56     9      180.000000       -0.185122         2    ;  uncertainty k = 0.473281
        33        27        54        56     9        0.000000        0.520980         3    ;  uncertainty k = 0.219282
        33        27        54        56     9      180.000000       -0.023163         4    ;  uncertainty k = 0.048880
        33        37        46        52     9        0.000000        0.135428         1    ;  uncertainty k = 0.300228
        33        37        46        52     9      180.000000        8.964493         2    ;  uncertainty k = 0.258916
        33        37        46        52     9        0.000000        0.053151         3    ;  uncertainty k = 0.323257
        33        37        46        52     9      180.000000        1.243614         4    ;  uncertainty k = 0.258463
        33        37        46        63     9        0.000000        0.349309         1    ;  uncertainty k = 0.298007
        33        37        46        63     9      180.000000        9.492273         2    ;  uncertainty k = 0.422041
        33        37        46        63     9        0.000000        1.253575         3    ;  uncertainty k = 0.341581
        33        37        46        63     9      180.000000        1.680112         4    ;  uncertainty k = 0.266477
        33        59        57        52     9        0.000000       -0.141906         1    ;  uncertainty k = 0.283148
        33        59        57        52     9      180.000000       13.900820         2    ;  uncertainty k = 0.390427
        33        59        57        52     9        0.000000       -0.879721         3    ;  uncertainty k = 0.385992
        33        59        57        52     9      180.000000        0.744538         4    ;  uncertainty k = 0.208058
        33        59        57        58     9        0.000000        0.040394         1    ;  uncertainty k = 0.315442
        33        59        57        58     9      180.000000        7.399534         2    ;  uncertainty k = 0.221286
        33        59        57        58     9        0.000000        1.480243         3    ;  uncertainty k = 0.252117
        33        59        57        58     9      180.000000        1.725700         4    ;  uncertainty k = 0.096318
        34        38        47        48     9        0.000000        0.000250         1    ;  uncertainty k = 0.206465
        34        38        47        48     9      180.000000        5.882345         2    ;  uncertainty k = 0.714480
        34        38        47        48     9        0.000000        1.305115         3    ;  uncertainty k = 0.360334
        34        38        47        48     9      180.000000        1.568343         4    ;  uncertainty k = 0.171880
        35        34        38        39     9        0.000000       -0.240771         1    ;  uncertainty k = 0.279191
        35        34        38        39     9      180.000000        8.519234         2    ;  uncertainty k = 0.364229
        35        34        38        39     9        0.000000        0.792415         3    ;  uncertainty k = 0.318594
        35        34        38        39     9      180.000000        0.989252         4    ;  uncertainty k = 0.224408
        35        34        38        47     9        0.000000        0.113274         1    ;  uncertainty k = 0.163887
        35        34        38        47     9      180.000000        5.570070         2    ;  uncertainty k = 0.658049
        35        34        38        47     9        0.000000        1.285225         3    ;  uncertainty k = 0.310395
        35        34        38        47     9      180.000000        1.458916         4    ;  uncertainty k = 0.148553
        36        30        27        54     9        0.000000       -0.119676         1    ;  uncertainty k = 1.751482
        36        30        27        54     9      180.000000        0.922140         2    ;  uncertainty k = 0.344678
        36        30        27        54     9        0.000000        0.721570         3    ;  uncertainty k = 0.380102
        36        30        27        54     9      180.000000       -0.913471         4    ;  uncertainty k = 0.256897
        36        43        49        50     9        0.000000       -1.682033         1    ;  uncertainty k = 0.270101
        36        43        49        50     9      180.000000       -0.450516         2    ;  uncertainty k = 0.170394
        36        43        49        50     9        0.000000        0.426110         3    ;  uncertainty k = 0.085850
        36        43        49        50     9      180.000000       -0.018605         4    ;  uncertainty k = 0.047628
        36        43        49        51     9        0.000000       -1.682033         1    ;  uncertainty k = 0.270101
        36        43        49        51     9      180.000000       -0.450516         2    ;  uncertainty k = 0.170394
        36        43        49        51     9        0.000000        0.426110         3    ;  uncertainty k = 0.085850
        36        43        49        51     9      180.000000       -0.018605         4    ;  uncertainty k = 0.047628
        36        43        49        54     9        0.000000       -8.611498         1    ;  uncertainty k = 1.562641
        36        43        49        54     9      180.000000        1.369361         2    ;  uncertainty k = 0.438702
        36        43        49        54     9        0.000000        1.783440         3    ;  uncertainty k = 0.147501
        36        43        49        54     9      180.000000       -1.140309         4    ;  uncertainty k = 0.234597
        37        33        27        54     9        0.000000       -0.439002         1    ;  uncertainty k = 0.483590
        37        33        27        54     9      180.000000        2.349862         2    ;  uncertainty k = 0.416008
        37        33        27        54     9        0.000000        0.345411         3    ;  uncertainty k = 0.135234
        37        33        27        54     9      180.000000        0.172153         4    ;  uncertainty k = 0.063492
        37        33        59        57     9        0.000000       -0.330362         1    ;  uncertainty k = 0.332412
        37        33        59        57     9      180.000000       12.323307         2    ;  uncertainty k = 0.490345
        37        33        59        57     9        0.000000       -0.512095         3    ;  uncertainty k = 0.146872
        37        33        59        57     9      180.000000        0.879216         4    ;  uncertainty k = 0.233019
        37        33        59        60     9        0.000000        0.030614         1    ;  uncertainty k = 0.198621
        37        33        59        60     9      180.000000        7.687414         2    ;  uncertainty k = 0.538217
        37        33        59        60     9        0.000000        1.439679         3    ;  uncertainty k = 0.343498
        37        33        59        60     9      180.000000        1.616748         4    ;  uncertainty k = 0.186065
        37        46        52        53     9        0.000000        0.219374         1    ;  uncertainty k = 0.311824
        37        46        52        53     9      180.000000        6.862424         2    ;  uncertainty k = 0.495963
        37        46        52        53     9        0.000000        1.322172         3    ;  uncertainty k = 0.380050
        37        46        52        53     9      180.000000        1.639503         4    ;  uncertainty k = 0.178009
        37        46        52        57     9        0.000000       -0.137519         1    ;  uncertainty k = 0.153673
        37        46        52        57     9      180.000000       10.102610         2    ;  uncertainty k = 0.352256
        37        46        52        57     9        0.000000       -0.176425         3    ;  uncertainty k = 0.290751
        37        46        52        57     9      180.000000        1.163935         4    ;  uncertainty k = 0.301845
        37        46        63        62     9        0.000000       -0.091817         1    ;  uncertainty k = 1.569034
        37        46        63        62     9      180.000000        5.590999         2    ;  uncertainty k = 0.485405
        37        46        63        62     9        0.000000        0.426727         3    ;  uncertainty k = 0.570469
        37        46        63        62     9      180.000000        0.550407         4    ;  uncertainty k = 0.083453
        37        46        63        64     9        0.000000        0.639018         1    ;  uncertainty k = 0.653953
        37        46        63        64     9      180.000000        4.715835         2    ;  uncertainty k = 0.347546
        37        46        63        64     9        0.000000        0.522359         3    ;  uncertainty k = 0.216125
        37        46        63        64     9      180.000000        0.696105         4    ;  uncertainty k = 0.094887
        39        38        47        48     9        0.000000       -0.338324         1    ;  uncertainty k = 0.125407
        39        38        47        48     9      180.000000        9.023857         2    ;  uncertainty k = 0.342386
        39        38        47        48     9        0.000000        0.780162         3    ;  uncertainty k = 0.283675
        39        38        47        48     9      180.000000        0.968908         4    ;  uncertainty k = 0.220959
        40        36        43        44     9        0.000000        2.507999         1    ;  uncertainty k = 0.657804
        40        36        43        44     9      180.000000       -0.113206         2    ;  uncertainty k = 0.041036
        40        36        43        44     9        0.000000        0.237190         3    ;  uncertainty k = 0.141933
        40        36        43        44     9      180.000000        0.113988         4    ;  uncertainty k = 0.030644
        40        36        43        45     9        0.000000        2.507999         1    ;  uncertainty k = 0.657804
        40        36        43        45     9      180.000000       -0.113206         2    ;  uncertainty k = 0.041036
        40        36        43        45     9        0.000000        0.237190         3    ;  uncertainty k = 0.141933
        40        36        43        45     9      180.000000        0.113988         4    ;  uncertainty k = 0.030644
        40        36        43        49     9        0.000000       -1.682034         1    ;  uncertainty k = 0.270102
        40        36        43        49     9      180.000000       -0.450514         2    ;  uncertainty k = 0.170395
        40        36        43        49     9        0.000000        0.426110         3    ;  uncertainty k = 0.085850
        40        36        43        49     9      180.000000       -0.018604         4    ;  uncertainty k = 0.047629
        41        36        43        44     9        0.000000        2.507999         1    ;  uncertainty k = 0.657804
        41        36        43        44     9      180.000000       -0.113206         2    ;  uncertainty k = 0.041036
        41        36        43        44     9        0.000000        0.237190         3    ;  uncertainty k = 0.141933
        41        36        43        44     9      180.000000        0.113988         4    ;  uncertainty k = 0.030644
        41        36        43        45     9        0.000000        2.507999         1    ;  uncertainty k = 0.657804
        41        36        43        45     9      180.000000       -0.113206         2    ;  uncertainty k = 0.041036
        41        36        43        45     9        0.000000        0.237190         3    ;  uncertainty k = 0.141933
        41        36        43        45     9      180.000000        0.113988         4    ;  uncertainty k = 0.030644
        41        36        43        49     9        0.000000       -1.682034         1    ;  uncertainty k = 0.270102
        41        36        43        49     9      180.000000       -0.450514         2    ;  uncertainty k = 0.170395
        41        36        43        49     9        0.000000        0.426110         3    ;  uncertainty k = 0.085850
        41        36        43        49     9      180.000000       -0.018604         4    ;  uncertainty k = 0.047629
        42        37        33        59     9        0.000000        0.133532         1    ;  uncertainty k = 0.134591
        42        37        33        59     9      180.000000        8.005856         2    ;  uncertainty k = 0.483319
        42        37        33        59     9        0.000000        1.480909         3    ;  uncertainty k = 0.267486
        42        37        33        59     9      180.000000        1.648914         4    ;  uncertainty k = 0.193158
        42        37        46        52     9        0.000000        0.189702         1    ;  uncertainty k = 0.240981
        42        37        46        52     9      180.000000        7.051933         2    ;  uncertainty k = 0.624664
        42        37        46        52     9        0.000000        1.364262         3    ;  uncertainty k = 0.264792
        42        37        46        52     9      180.000000        1.646200         4    ;  uncertainty k = 0.231549
        42        37        46        63     9        0.000000       -0.185359         1    ;  uncertainty k = 0.295799
        42        37        46        63     9      180.000000        7.615565         2    ;  uncertainty k = 0.149289
        42        37        46        63     9        0.000000        0.810116         3    ;  uncertainty k = 0.172838
        42        37        46        63     9      180.000000        1.370073         4    ;  uncertainty k = 0.160674
        43        49        54        55     9        0.000000       -1.983969         1    ;  uncertainty k = 0.669418
        43        49        54        55     9      180.000000       -0.050871         2    ;  uncertainty k = 0.260863
        43        49        54        55     9        0.000000        0.508699         3    ;  uncertainty k = 0.104846
        43        49        54        55     9      180.000000       -0.031107         4    ;  uncertainty k = 0.060996
        43        49        54        56     9        0.000000       -1.983969         1    ;  uncertainty k = 0.669418
        43        49        54        56     9      180.000000       -0.050871         2    ;  uncertainty k = 0.260863
        43        49        54        56     9        0.000000        0.508699         3    ;  uncertainty k = 0.104846
        43        49        54        56     9      180.000000       -0.031107         4    ;  uncertainty k = 0.060996
        44        43        49        50     9        0.000000        2.507999         1    ;  uncertainty k = 0.657804
        44        43        49        50     9      180.000000       -0.113205         2    ;  uncertainty k = 0.041036
        44        43        49        50     9        0.000000        0.237190         3    ;  uncertainty k = 0.141933
        44        43        49        50     9      180.000000        0.113988         4    ;  uncertainty k = 0.030644
        44        43        49        51     9        0.000000        2.507999         1    ;  uncertainty k = 0.657804
        44        43        49        51     9      180.000000       -0.113205         2    ;  uncertainty k = 0.041036
        44        43        49        51     9        0.000000        0.237190         3    ;  uncertainty k = 0.141933
        44        43        49        51     9      180.000000        0.113988         4    ;  uncertainty k = 0.030644
        44        43        49        54     9        0.000000       -1.999804         1    ;  uncertainty k = 0.225317
        44        43        49        54     9      180.000000       -0.232323         2    ;  uncertainty k = 0.172197
        44        43        49        54     9        0.000000        0.488841         3    ;  uncertainty k = 0.205544
        44        43        49        54     9      180.000000       -0.107597         4    ;  uncertainty k = 0.052869
        45        43        49        50     9        0.000000        2.507999         1    ;  uncertainty k = 0.657804
        45        43        49        50     9      180.000000       -0.113205         2    ;  uncertainty k = 0.041036
        45        43        49        50     9        0.000000        0.237190         3    ;  uncertainty k = 0.141933
        45        43        49        50     9      180.000000        0.113988         4    ;  uncertainty k = 0.030644
        45        43        49        51     9        0.000000        2.507999         1    ;  uncertainty k = 0.657804
        45        43        49        51     9      180.000000       -0.113205         2    ;  uncertainty k = 0.041036
        45        43        49        51     9        0.000000        0.237190         3    ;  uncertainty k = 0.141933
        45        43        49        51     9      180.000000        0.113988         4    ;  uncertainty k = 0.030644
        45        43        49        54     9        0.000000       -1.999804         1    ;  uncertainty k = 0.225317
        45        43        49        54     9      180.000000       -0.232323         2    ;  uncertainty k = 0.172197
        45        43        49        54     9        0.000000        0.488841         3    ;  uncertainty k = 0.205544
        45        43        49        54     9      180.000000       -0.107597         4    ;  uncertainty k = 0.052869
        46        37        33        59     9        0.000000       -0.249180         1    ;  uncertainty k = 0.340333
        46        37        33        59     9      180.000000       11.970434         2    ;  uncertainty k = 0.222211
        46        37        33        59     9        0.000000       -0.135240         3    ;  uncertainty k = 0.223549
        46        37        33        59     9      180.000000        0.923026         4    ;  uncertainty k = 0.244398
        46        52        57        58     9        0.000000       -0.006705         1    ;  uncertainty k = 0.170204
        46        52        57        58     9      180.000000        7.577606         2    ;  uncertainty k = 0.335898
        46        52        57        58     9        0.000000        1.301140         3    ;  uncertainty k = 0.227711
        46        52        57        58     9      180.000000        1.852559         4    ;  uncertainty k = 0.112553
        46        52        57        59     9        0.000000       -0.113408         1    ;  uncertainty k = 0.231141
        46        52        57        59     9      180.000000       14.047626         2    ;  uncertainty k = 0.173851
        46        52        57        59     9        0.000000       -0.841648         3    ;  uncertainty k = 0.494735
        46        52        57        59     9      180.000000        0.783200         4    ;  uncertainty k = 0.227386
        46        63        62        61     9        0.000000       -2.451465         1    ;  uncertainty k = 1.268672
        46        63        62        61     9      180.000000        0.241241         2    ;  uncertainty k = 1.561750
        46        63        62        61     9        0.000000        0.485576         3    ;  uncertainty k = 0.243523
        46        63        62        61     9      180.000000        0.210719         4    ;  uncertainty k = 0.195556
        46        63        62        69     9        0.000000        0.024794         1    ;  uncertainty k = 0.809738
        46        63        62        69     9      180.000000       -0.676414         2    ;  uncertainty k = 0.270094
        46        63        62        69     9        0.000000        0.762433         3    ;  uncertainty k = 0.277652
        46        63        62        69     9      180.000000        0.180468         4    ;  uncertainty k = 0.139053
        46        63        62        70     9        0.000000        0.024794         1    ;  uncertainty k = 0.809738
        46        63        62        70     9      180.000000       -0.676414         2    ;  uncertainty k = 0.270094
        46        63        62        70     9        0.000000        0.762433         3    ;  uncertainty k = 0.277652
        46        63        62        70     9      180.000000        0.180468         4    ;  uncertainty k = 0.139053
        46        63        64        65     9        0.000000        7.154493         1    ;  uncertainty k = 1.419780
        46        63        64        65     9      180.000000        5.166601         2    ;  uncertainty k = 0.903114
        46        63        64        65     9        0.000000        1.409256         3    ;  uncertainty k = 0.443894
        46        63        64        65     9      180.000000        0.476857         4    ;  uncertainty k = 0.392506
        46        63        64        73     9        0.000000        2.630662         1    ;  uncertainty k = 2.021756
        46        63        64        73     9      180.000000       15.091570         2    ;  uncertainty k = 0.181222
        46        63        64        73     9        0.000000        0.642215         3    ;  uncertainty k = 0.268107
        46        63        64        73     9      180.000000       -0.492369         4    ;  uncertainty k = 0.237567
        50        49        54        55     9        0.000000        1.865633         1    ;  uncertainty k = 0.151738
        50        49        54        55     9      180.000000       -0.051734         2    ;  uncertainty k = 0.121264
        50        49        54        55     9        0.000000        0.308088         3    ;  uncertainty k = 0.074079
        50        49        54        55     9      180.000000        0.151763         4    ;  uncertainty k = 0.037921
        50        49        54        56     9        0.000000        1.865633         1    ;  uncertainty k = 0.151738
        50        49        54        56     9      180.000000       -0.051734         2    ;  uncertainty k = 0.121264
        50        49        54        56     9        0.000000        0.308088         3    ;  uncertainty k = 0.074079
        50        49        54        56     9      180.000000        0.151763         4    ;  uncertainty k = 0.037921
        51        49        54        55     9        0.000000        1.865633         1    ;  uncertainty k = 0.151738
        51        49        54        55     9      180.000000       -0.051734         2    ;  uncertainty k = 0.121264
        51        49        54        55     9        0.000000        0.308088         3    ;  uncertainty k = 0.074079
        51        49        54        55     9      180.000000        0.151763         4    ;  uncertainty k = 0.037921
        51        49        54        56     9        0.000000        1.865633         1    ;  uncertainty k = 0.151738
        51        49        54        56     9      180.000000       -0.051734         2    ;  uncertainty k = 0.121264
        51        49        54        56     9        0.000000        0.308088         3    ;  uncertainty k = 0.074079
        51        49        54        56     9      180.000000        0.151763         4    ;  uncertainty k = 0.037921
        52        46        63        62     9        0.000000        0.092237         1    ;  uncertainty k = 1.163980
        52        46        63        62     9      180.000000        5.279478         2    ;  uncertainty k = 0.219931
        52        46        63        62     9        0.000000        0.547860         3    ;  uncertainty k = 0.403959
        52        46        63        62     9      180.000000        0.554077         4    ;  uncertainty k = 0.094398
        52        46        63        64     9        0.000000        0.915523         1    ;  uncertainty k = 1.053746
        52        46        63        64     9      180.000000        4.442273         2    ;  uncertainty k = 0.349719
        52        46        63        64     9        0.000000        0.504291         3    ;  uncertainty k = 0.274953
        52        46        63        64     9      180.000000        0.721045         4    ;  uncertainty k = 0.042087
        52        57        59        60     9        0.000000        0.048795         1    ;  uncertainty k = 0.156842
        52        57        59        60     9      180.000000        7.865834         2    ;  uncertainty k = 0.336213
        52        57        59        60     9        0.000000        1.399882         3    ;  uncertainty k = 0.207942
        52        57        59        60     9      180.000000        1.804472         4    ;  uncertainty k = 0.099632
        53        52        46        63     9        0.000000       -0.237655         1    ;  uncertainty k = 0.191653
        53        52        46        63     9      180.000000        7.635064         2    ;  uncertainty k = 0.162236
        53        52        46        63     9        0.000000        0.789970         3    ;  uncertainty k = 0.140645
        53        52        46        63     9      180.000000        1.272271         4    ;  uncertainty k = 0.161621
        53        52        57        58     9        0.000000       -0.152302         1    ;  uncertainty k = 0.234534
        53        52        57        58     9      180.000000        7.987118         2    ;  uncertainty k = 0.316154
        53        52        57        58     9        0.000000       -0.456882         3    ;  uncertainty k = 0.326597
        53        52        57        58     9      180.000000        0.181690         4    ;  uncertainty k = 0.160415
        53        52        57        59     9        0.000000        0.067702         1    ;  uncertainty k = 0.040334
        53        52        57        59     9      180.000000        7.805528         2    ;  uncertainty k = 0.178643
        53        52        57        59     9        0.000000        1.457119         3    ;  uncertainty k = 0.239049
        53        52        57        59     9      180.000000        1.840644         4    ;  uncertainty k = 0.200301
        54        27        33        59     9        0.000000       -0.434791         1    ;  uncertainty k = 0.458229
        54        27        33        59     9      180.000000        2.284160         2    ;  uncertainty k = 0.391468
        54        27        33        59     9        0.000000        0.443926         3    ;  uncertainty k = 0.152428
        54        27        33        59     9      180.000000        0.201168         4    ;  uncertainty k = 0.068879
        57        52        46        63     9        0.000000        0.226600         1    ;  uncertainty k = 0.217034
        57        52        46        63     9      180.000000       10.037626         2    ;  uncertainty k = 0.495524
        57        52        46        63     9        0.000000        1.235408         3    ;  uncertainty k = 0.325170
        57        52        46        63     9      180.000000        1.782721         4    ;  uncertainty k = 0.251247
        58        57        59        60     9        0.000000       -0.031010         1    ;  uncertainty k = 0.321046
        58        57        59        60     9      180.000000        7.967581         2    ;  uncertainty k = 0.342885
        58        57        59        60     9        0.000000       -0.429217         3    ;  uncertainty k = 0.315582
        58        57        59        60     9      180.000000        0.166405         4    ;  uncertainty k = 0.176191
        61        62        63        64     9        0.000000        4.314955         1    ;  uncertainty k = 1.124224
        61        62        63        64     9      180.000000       -0.879996         2    ;  uncertainty k = 0.661431
        61        62        63        64     9        0.000000       -0.748744         3    ;  uncertainty k = 0.252919
        61        62        63        64     9      180.000000        0.602984         4    ;  uncertainty k = 0.340609
        61        66        65        64     9        0.000000       10.589255         1    ;  uncertainty k = 3.181855
        61        66        65        64     9      180.000000       -1.818156         2    ;  uncertainty k = 2.419736
        61        66        65        64     9        0.000000       -0.463002         3    ;  uncertainty k = 0.551546
        61        66        65        64     9      180.000000       -0.380356         4    ;  uncertainty k = 0.533862
        61        66        65        71     9        0.000000       -3.845111         1    ;  uncertainty k = 1.408521
        61        66        65        71     9      180.000000       -0.871317         2    ;  uncertainty k = 0.501629
        61        66        65        71     9        0.000000        0.531139         3    ;  uncertainty k = 0.076234
        61        66        65        71     9      180.000000       -0.169182         4    ;  uncertainty k = 0.097832
        61        66        65        72     9        0.000000       -3.845111         1    ;  uncertainty k = 1.408521
        61        66        65        72     9      180.000000       -0.871317         2    ;  uncertainty k = 0.501629
        61        66        65        72     9        0.000000        0.531139         3    ;  uncertainty k = 0.076234
        61        66        65        72     9      180.000000       -0.169182         4    ;  uncertainty k = 0.097832
        62        61        66        65     9        0.000000       -4.163411         1    ;  uncertainty k = 2.586359
        62        61        66        65     9      180.000000        0.857977         2    ;  uncertainty k = 0.579605
        62        61        66        65     9        0.000000       -0.788628         3    ;  uncertainty k = 0.404083
        62        61        66        65     9      180.000000        0.122508         4    ;  uncertainty k = 0.356842
        62        63        64        65     9        0.000000        7.442074         1    ;  uncertainty k = 1.883350
        62        63        64        65     9      180.000000       -0.552902         2    ;  uncertainty k = 0.657084
        62        63        64        65     9        0.000000       -0.478812         3    ;  uncertainty k = 0.627278
        62        63        64        65     9      180.000000        1.259824         4    ;  uncertainty k = 0.581012
        62        63        64        73     9        0.000000        2.099692         1    ;  uncertainty k = 1.451864
        62        63        64        73     9      180.000000       16.114086         2    ;  uncertainty k = 0.288615
        62        63        64        73     9        0.000000        0.941577         3    ;  uncertainty k = 0.443797
        62        63        64        73     9      180.000000       -0.443114         4    ;  uncertainty k = 0.174609
        63        62        61        66     9        0.000000        4.786226         1    ;  uncertainty k = 1.788503
        63        62        61        66     9      180.000000       -8.151830         2    ;  uncertainty k = 0.569252
        63        62        61        66     9        0.000000        2.494957         3    ;  uncertainty k = 0.409588
        63        62        61        66     9      180.000000       -0.129175         4    ;  uncertainty k = 0.258413
        63        62        61        67     9        0.000000        3.205726         1    ;  uncertainty k = 0.385099
        63        62        61        67     9      180.000000       -3.475008         2    ;  uncertainty k = 0.683562
        63        62        61        67     9        0.000000        0.449084         3    ;  uncertainty k = 0.262154
        63        62        61        67     9      180.000000        0.153730         4    ;  uncertainty k = 0.234667
        63        62        61        68     9        0.000000        3.205726         1    ;  uncertainty k = 0.385099
        63        62        61        68     9      180.000000       -3.475008         2    ;  uncertainty k = 0.683562
        63        62        61        68     9        0.000000        0.449084         3    ;  uncertainty k = 0.262154
        63        62        61        68     9      180.000000        0.153730         4    ;  uncertainty k = 0.234667
        63        64        65        66     9        0.000000        6.306430         1    ;  uncertainty k = 2.156249
        63        64        65        66     9      180.000000       -1.495273         2    ;  uncertainty k = 1.247777
        63        64        65        66     9        0.000000       -0.662434         3    ;  uncertainty k = 0.692523
        63        64        65        66     9      180.000000        0.575538         4    ;  uncertainty k = 0.107045
        63        64        65        71     9        0.000000       -1.344692         1    ;  uncertainty k = 0.789657
        63        64        65        71     9      180.000000        0.661269         2    ;  uncertainty k = 0.468240
        63        64        65        71     9        0.000000       -0.156373         3    ;  uncertainty k = 0.183946
        63        64        65        71     9      180.000000       -0.217678         4    ;  uncertainty k = 0.167139
        63        64        65        72     9        0.000000       -1.344692         1    ;  uncertainty k = 0.789657
        63        64        65        72     9      180.000000        0.661269         2    ;  uncertainty k = 0.468240
        63        64        65        72     9        0.000000       -0.156373         3    ;  uncertainty k = 0.183946
        63        64        65        72     9      180.000000       -0.217678         4    ;  uncertainty k = 0.167139
        64        63        62        69     9        0.000000       -0.289260         1    ;  uncertainty k = 0.733028
        64        63        62        69     9      180.000000        0.602348         2    ;  uncertainty k = 0.406154
        64        63        62        69     9        0.000000        0.193434         3    ;  uncertainty k = 0.066939
        64        63        62        69     9      180.000000        0.345009         4    ;  uncertainty k = 0.090393
        64        63        62        70     9        0.000000       -0.289260         1    ;  uncertainty k = 0.733028
        64        63        62        70     9      180.000000        0.602348         2    ;  uncertainty k = 0.406154
        64        63        62        70     9        0.000000        0.193434         3    ;  uncertainty k = 0.066939
        64        63        62        70     9      180.000000        0.345009         4    ;  uncertainty k = 0.090393
        65        66        61        67     9        0.000000       -4.255800         1    ;  uncertainty k = 1.867046
        65        66        61        67     9      180.000000       -0.742817         2    ;  uncertainty k = 0.343237
        65        66        61        67     9        0.000000        0.259730         3    ;  uncertainty k = 0.117621
        65        66        61        67     9      180.000000       -0.321976         4    ;  uncertainty k = 0.108289
        65        66        61        68     9        0.000000       -4.255800         1    ;  uncertainty k = 1.867046
        65        66        61        68     9      180.000000       -0.742817         2    ;  uncertainty k = 0.343237
        65        66        61        68     9        0.000000        0.259730         3    ;  uncertainty k = 0.117621
        65        66        61        68     9      180.000000       -0.321976         4    ;  uncertainty k = 0.108289
        66        61        62        69     9        0.000000        1.262195         1    ;  uncertainty k = 0.489439
        66        61        62        69     9      180.000000       -1.654327         2    ;  uncertainty k = 0.653216
        66        61        62        69     9        0.000000        0.785989         3    ;  uncertainty k = 0.184873
        66        61        62        69     9      180.000000        0.169139         4    ;  uncertainty k = 0.203195
        66        61        62        70     9        0.000000        1.262195         1    ;  uncertainty k = 0.489439
        66        61        62        70     9      180.000000       -1.654327         2    ;  uncertainty k = 0.653216
        66        61        62        70     9        0.000000        0.785989         3    ;  uncertainty k = 0.184873
        66        61        62        70     9      180.000000        0.169139         4    ;  uncertainty k = 0.203195
        66        65        64        73     9        0.000000       -3.037542         1    ;  uncertainty k = 1.669669
        66        65        64        73     9      180.000000        1.870897         2    ;  uncertainty k = 0.620001
        66        65        64        73     9        0.000000        0.065942         3    ;  uncertainty k = 0.531890
        66        65        64        73     9      180.000000        0.820161         4    ;  uncertainty k = 0.526563
        67        61        62        69     9        0.000000       -1.759787         1    ;  uncertainty k = 0.948026
        67        61        62        69     9      180.000000        1.637442         2    ;  uncertainty k = 0.349084
        67        61        62        69     9        0.000000        0.067008         3    ;  uncertainty k = 0.153185
        67        61        62        69     9      180.000000       -0.705916         4    ;  uncertainty k = 0.122945
        67        61        62        70     9        0.000000       -1.759787         1    ;  uncertainty k = 0.948026
        67        61        62        70     9      180.000000        1.637442         2    ;  uncertainty k = 0.349084
        67        61        62        70     9        0.000000        0.067008         3    ;  uncertainty k = 0.153185
        67        61        62        70     9      180.000000       -0.705916         4    ;  uncertainty k = 0.122945
        68        61        62        69     9        0.000000       -1.759787         1    ;  uncertainty k = 0.948026
        68        61        62        69     9      180.000000        1.637442         2    ;  uncertainty k = 0.349084
        68        61        62        69     9        0.000000        0.067008         3    ;  uncertainty k = 0.153185
        68        61        62        69     9      180.000000       -0.705916         4    ;  uncertainty k = 0.122945
        68        61        62        70     9        0.000000       -1.759787         1    ;  uncertainty k = 0.948026
        68        61        62        70     9      180.000000        1.637442         2    ;  uncertainty k = 0.349084
        68        61        62        70     9        0.000000        0.067008         3    ;  uncertainty k = 0.153185
        68        61        62        70     9      180.000000       -0.705916         4    ;  uncertainty k = 0.122945
        71        65        64        73     9        0.000000       -1.529334         1    ;  uncertainty k = 1.378640
        71        65        64        73     9      180.000000        1.797036         2    ;  uncertainty k = 0.776127
        71        65        64        73     9        0.000000        0.948571         3    ;  uncertainty k = 0.221490
        71        65        64        73     9      180.000000        0.085866         4    ;  uncertainty k = 0.145899
        72        65        64        73     9        0.000000       -1.529334         1    ;  uncertainty k = 1.378640
        72        65        64        73     9      180.000000        1.797036         2    ;  uncertainty k = 0.776127
        72        65        64        73     9        0.000000        0.948571         3    ;  uncertainty k = 0.221490
        72        65        64        73     9      180.000000        0.085866         4    ;  uncertainty k = 0.145899

[ dihedrals ] ; impropers
;       ai        aj        ak        al funct           phase               k        pn
         5         1         6         7     4      180.000000       55.748670         2    ;  uncertainty k = 0.008050
         5         6         7         1     4      180.000000       55.748670         2    ;  uncertainty k = 0.008050
         5         7         1         6     4      180.000000       55.748670         2    ;  uncertainty k = 0.008050
        19        13        24        47     4      180.000000       15.203962         2    ;  uncertainty k = 0.057963
        19        24        47        13     4      180.000000       15.203962         2    ;  uncertainty k = 0.057963
        19        47        13        24     4      180.000000       15.203962         2    ;  uncertainty k = 0.057963
        24        19        25        28     4      180.000000        1.997748         2    ;  uncertainty k = 0.039295
        24        25        28        19     4      180.000000        1.997748         2    ;  uncertainty k = 0.039295
        24        28        19        25     4      180.000000        1.997748         2    ;  uncertainty k = 0.039295
        28        24        29        34     4      180.000000       18.344378         2    ;  uncertainty k = 0.038620
        28        29        34        24     4      180.000000       18.344378         2    ;  uncertainty k = 0.038620
        28        34        24        29     4      180.000000       18.344378         2    ;  uncertainty k = 0.038620
        33        27        37        59     4      180.000000       11.068195         2    ;  uncertainty k = 0.244409
        33        37        59        27     4      180.000000       11.068195         2    ;  uncertainty k = 0.244409
        33        59        27        37     4      180.000000       11.068195         2    ;  uncertainty k = 0.244409
        34        28        35        38     4      180.000000        1.035730         2    ;  uncertainty k = 0.329384
        34        35        38        28     4      180.000000        1.035730         2    ;  uncertainty k = 0.329384
        34        38        28        35     4      180.000000        1.035730         2    ;  uncertainty k = 0.329384
        37        33        42        46     4      180.000000        2.913276         2    ;  uncertainty k = 0.683399
        37        42        46        33     4      180.000000        2.913276         2    ;  uncertainty k = 0.683399
        37        46        33        42     4      180.000000        2.913276         2    ;  uncertainty k = 0.683399
        38        34        39        47     4      180.000000       18.344380         2    ;  uncertainty k = 0.038621
        38        39        47        34     4      180.000000       18.344380         2    ;  uncertainty k = 0.038621
        38        47        34        39     4      180.000000       18.344380         2    ;  uncertainty k = 0.038621
        46        37        52        63     4      180.000000       18.021477         2    ;  uncertainty k = 0.146188
        46        52        63        37     4      180.000000       18.021477         2    ;  uncertainty k = 0.146188
        46        63        37        52     4      180.000000       18.021477         2    ;  uncertainty k = 0.146188
        47        19        38        48     4      180.000000        1.997753         2    ;  uncertainty k = 0.039293
        47        38        48        19     4      180.000000        1.997753         2    ;  uncertainty k = 0.039293
        47        48        19        38     4      180.000000        1.997753         2    ;  uncertainty k = 0.039293
        52        46        53        57     4      180.000000        3.592812         2    ;  uncertainty k = 0.223542
        52        53        57        46     4      180.000000        3.592812         2    ;  uncertainty k = 0.223542
        52        57        46        53     4      180.000000        3.592812         2    ;  uncertainty k = 0.223542
        57        52        58        59     4      180.000000        3.791821         2    ;  uncertainty k = 0.116154
        57        58        59        52     4      180.000000        3.791821         2    ;  uncertainty k = 0.116154
        57        59        52        58     4      180.000000        3.791821         2    ;  uncertainty k = 0.116154
        59        33        57        60     4      180.000000        1.962704         2    ;  uncertainty k = 0.938781
        59        57        60        33     4      180.000000        1.962704         2    ;  uncertainty k = 0.938781
        59        60        33        57     4      180.000000        1.962704         2    ;  uncertainty k = 0.938781
        63        46        62        64     4      180.000000        3.783886         2    ;  uncertainty k = 0.449066
        63        62        64        46     4      180.000000        3.783886         2    ;  uncertainty k = 0.449066
        63        64        46        62     4      180.000000        3.783886         2    ;  uncertainty k = 0.449066
        64        63        65        73     4      180.000000       52.568587         2    ;  uncertainty k = 0.055157
        64        65        73        63     4      180.000000       52.568587         2    ;  uncertainty k = 0.055157
        64        73        63        65     4      180.000000       52.568587         2    ;  uncertainty k = 0.055157

[ pairs ]
;       ai        aj funct
         1         8     1
         1         9     1
         2         6     1
         2         7     1
         3         6     1
         3         7     1
         4         6     1
         4         7     1
         5        10     1
         5        11     1
         5        13     1
         6         8     1
         6         9     1
         7        12     1
         7        14     1
         7        15     1
         7        16     1
         7        19     1
         7        20     1
         8        10     1
         8        11     1
         8        13     1
         9        17     1
         9        18     1
         9        21     1
         9        22     1
         9        24     1
         9        47     1
        10        12     1
        10        14     1
        10        15     1
        10        16     1
        10        19     1
        10        20     1
        11        14     1
        11        15     1
        11        19     1
        11        23     1
        11        26     1
        11        27     1
        12        13     1
        12        17     1
        12        18     1
        12        21     1
        12        22     1
        13        16     1
        13        20     1
        13        25     1
        13        28     1
        13        38     1
        13        48     1
        14        24     1
        14        47     1
        15        24     1
        15        47     1
        16        21     1
        16        30     1
        16        33     1
        16        54     1
        17        20     1
        17        23     1
        17        26     1
        17        27     1
        18        20     1
        18        23     1
        18        26     1
        18        27     1
        19        29     1
        19        34     1
        19        39     1
        20        22     1
        22        31     1
        22        32     1
        22        36     1
        22        37     1
        22        49     1
        22        55     1
        22        56     1
        22        59     1
        23        30     1
        23        33     1
        23        54     1
        24        35     1
        24        38     1
        24        48     1
        25        29     1
        25        34     1
        25        47     1
        26        30     1
        26        33     1
        26        54     1
        27        40     1
        27        41     1
        27        42     1
        27        43     1
        27        46     1
        27        50     1
        27        51     1
        27        57     1
        27        60     1
        28        39     1
        28        47     1
        29        35     1
        29        38     1
        30        37     1
        30        44     1
        30        45     1
        30        49     1
        30        55     1
        30        56     1
        30        59     1
        31        33     1
        31        40     1
        31        41     1
        31        43     1
        31        54     1
        32        33     1
        32        40     1
        32        41     1
        32        43     1
        32        54     1
        33        36     1
        33        49     1
        33        52     1
        33        55     1
        33        56     1
        33        58     1
        33        63     1
        34        48     1
        35        39     1
        35        47     1
        36        50     1
        36        51     1
        36        54     1
        37        53     1
        37        54     1
        37        57     1
        37        60     1
        37        62     1
        37        64     1
        39        48     1
        40        44     1
        40        45     1
        40        49     1
        41        44     1
        41        45     1
        41        49     1
        42        52     1
        42        59     1
        42        63     1
        43        55     1
        43        56     1
        44        50     1
        44        51     1
        44        54     1
        45        50     1
        45        51     1
        45        54     1
        46        58     1
        46        59     1
        46        61     1
        46        65     1
        46        69     1
        46        70     1
        46        73     1
        50        55     1
        50        56     1
        51        55     1
        51        56     1
        52        60     1
        52        62     1
        52        64     1
        53        58     1
        53        59     1
        53        63     1
        54        59     1
        57        63     1
        58        60     1
        61        64     1
        61        71     1
        61        72     1
        62        65     1
        62        73     1
        63        66     1
        63        67     1
        63        68     1
        63        71     1
        63        72     1
        64        69     1
        64        70     1
        65        67     1
        65        68     1
        66        69     1
        66        70     1
        66        73     1
        67        69     1
        67        70     1
        68        69     1
        68        70     1
        71        73     1
        72        73     1
