clashed crystal waters from merck/pfkfb3
6
    2SOL     OW    4   8.429   4.583  26.631
    2SOL    HW1    5   8.427   4.514  26.559
    2SOL    HW2    6   8.524   4.606  26.654
  338SOL     OW 1012   8.325   4.563  26.905
  338SOL    HW1 1013   8.372   4.503  26.970
  338SOL    HW2 1014   8.347   4.534  26.812
    30.177    30.177    30.177
