Generated by PDBParser (exclude clash < 1.000 A)
1113
    1SOL     OW    1  11.257   5.695  27.075
    1SOL    HW1    2  11.200   5.613  27.064
    1SOL    HW2    3  11.334   5.690  27.012
    3SOL     OW    7   7.221   5.877  25.506
    3SOL    HW1    8   7.229   5.974  25.486
    3SOL    HW2    9   7.225   5.825  25.420
    4SOL     OW   10   8.456   6.750  27.557
    4SOL    HW1   11   8.459   6.693  27.640
    4SOL    HW2   12   8.380   6.720  27.499
    5SOL     OW   13   6.417   5.784  29.107
    5SOL    HW1   14   6.362   5.829  29.037
    5SOL    HW2   15   6.446   5.852  29.175
    6SOL     OW   16   9.185   4.402  24.549
    6SOL    HW1   17   9.220   4.404  24.643
    6SOL    HW2   18   9.088   4.377  24.551
    7SOL     OW   19  10.183   4.427  27.196
    7SOL    HW1   20  10.133   4.501  27.241
    7SOL    HW2   21  10.235   4.375  27.264
    8SOL     OW   22   8.310   5.627  25.867
    8SOL    HW1   23   8.375   5.703  25.866
    8SOL    HW2   24   8.220   5.660  25.836
    9SOL     OW   25  11.595   4.574  24.237
    9SOL    HW1   26  11.547   4.601  24.154
    9SOL    HW2   27  11.665   4.643  24.259
   10SOL     OW   28   9.461   2.994  25.774
   10SOL    HW1   29   9.387   2.995  25.842
   10SOL    HW2   30   9.429   3.036  25.689
   11SOL     OW   31  11.180   4.487  23.780
   11SOL    HW1   32  11.250   4.545  23.821
   11SOL    HW2   33  11.209   4.392  23.781
   12SOL     OW   34  10.497   4.505  26.619
   12SOL    HW1   35  10.492   4.446  26.699
   12SOL    HW2   36  10.567   4.470  26.556
   13SOL     OW   37   6.847   4.314  26.904
   13SOL    HW1   38   6.792   4.338  26.824
   13SOL    HW2   39   6.872   4.217  26.899
   14SOL     OW   40  10.264   6.393  24.236
   14SOL    HW1   41  10.249   6.388  24.335
   14SOL    HW2   42  10.236   6.482  24.202
   15SOL     OW   43   8.325   7.034  27.050
   15SOL    HW1   44   8.286   7.022  27.142
   15SOL    HW2   45   8.274   6.979  26.984
   16SOL     OW   46   9.910   7.488  25.053
   16SOL    HW1   47   9.878   7.409  25.001
   16SOL    HW2   48   9.992   7.463  25.104
   17SOL     OW   49   4.813   6.782  27.548
   17SOL    HW1   50   4.907   6.789  27.514
   17SOL    HW2   51   4.810   6.717  27.624
   18SOL     OW   52   4.872   5.015  26.704
   18SOL    HW1   53   4.853   4.954  26.627
   18SOL    HW2   54   4.838   5.107  26.683
   19SOL     OW   55  10.976   7.179  24.826
   19SOL    HW1   56  10.900   7.117  24.803
   19SOL    HW2   57  11.005   7.228  24.744
   20SOL     OW   58   9.054   4.420  25.038
   20SOL    HW1   59   9.150   4.413  25.011
   20SOL    HW2   60   9.032   4.514  25.061
   21SOL     OW   61   7.325   5.802  28.970
   21SOL    HW1   62   7.345   5.777  28.875
   21SOL    HW2   63   7.362   5.893  28.989
   22SOL     OW   64  11.390   5.434  25.560
   22SOL    HW1   65  11.377   5.392  25.649
   22SOL    HW2   66  11.485   5.463  25.550
   23SOL     OW   67   5.789   5.062  28.542
   23SOL    HW1   68   5.886   5.088  28.537
   23SOL    HW2   69   5.734   5.132  28.498
   24SOL     OW   70   5.935   7.738  25.384
   24SOL    HW1   71   6.016   7.783  25.345
   24SOL    HW2   72   5.960   7.647  25.417
   25SOL     OW   73   7.235   4.316  26.801
   25SOL    HW1   74   7.242   4.385  26.873
   25SOL    HW2   75   7.240   4.225  26.842
   26SOL     OW   76  10.650   3.399  24.797
   26SOL    HW1   77  10.608   3.464  24.733
   26SOL    HW2   78  10.722   3.348  24.751
   27SOL     OW   79   6.307   6.286  25.650
   27SOL    HW1   80   6.273   6.212  25.592
   27SOL    HW2   81   6.404   6.271  25.670
   28SOL     OW   82   5.983   7.360  28.387
   28SOL    HW1   83   6.012   7.271  28.351
   28SOL    HW2   84   6.030   7.377  28.474
   29SOL     OW   85   6.294   7.158  25.553
   29SOL    HW1   86   6.387   7.133  25.580
   29SOL    HW2   87   6.296   7.248  25.509
   30SOL     OW   88   8.378   4.962  27.173
   30SOL    HW1   89   8.363   4.886  27.236
   30SOL    HW2   90   8.390   4.927  27.080
   31SOL     OW   91   8.684   6.311  27.974
   31SOL    HW1   92   8.591   6.278  27.954
   31SOL    HW2   93   8.717   6.270  28.059
   32SOL     OW   94   6.611   8.625  26.071
   32SOL    HW1   95   6.684   8.561  26.050
   32SOL    HW2   96   6.537   8.578  26.118
   33SOL     OW   97  10.310   3.742  26.011
   33SOL    HW1   98  10.277   3.748  25.916
   33SOL    HW2   99  10.348   3.651  26.028
   34SOL     OW  100  11.093   4.957  24.265
   34SOL    HW1  101  11.027   4.893  24.226
   34SOL    HW2  102  11.154   4.990  24.194
   35SOL     OW  103   6.184   7.326  26.642
   35SOL    HW1  104   6.179   7.249  26.579
   35SOL    HW2  105   6.175   7.412  26.590
   36SOL     OW  106  10.803   4.823  25.658
   36SOL    HW1  107  10.814   4.734  25.703
   36SOL    HW2  108  10.882   4.839  25.598
   37SOL     OW  109   7.681   5.759  28.419
   37SOL    HW1  110   7.594   5.773  28.465
   37SOL    HW2  111   7.750   5.820  28.458
   38SOL     OW  112   9.256   4.983  25.159
   38SOL    HW1  113   9.267   5.061  25.221
   38SOL    HW2  114   9.323   4.912  25.183
   39SOL     OW  115   4.839   7.584  26.588
   39SOL    HW1  116   4.787   7.599  26.672
   39SOL    HW2  117   4.819   7.493  26.553
   40SOL     OW  118   7.909   7.298  26.624
   40SOL    HW1  119   7.984   7.283  26.689
   40SOL    HW2  120   7.823   7.307  26.674
   41SOL     OW  121   5.476   6.947  28.507
   41SOL    HW1  122   5.526   7.013  28.451
   41SOL    HW2  123   5.395   6.990  28.546
   42SOL     OW  124   9.282   4.894  25.595
   42SOL    HW1  125   9.278   4.985  25.638
   42SOL    HW2  126   9.199   4.843  25.617
   43SOL     OW  127  10.147   5.873  24.092
   43SOL    HW1  128  10.130   5.816  24.172
   43SOL    HW2  129  10.242   5.860  24.062
   44SOL     OW  130   5.587   5.196  28.449
   44SOL    HW1  131   5.616   5.290  28.427
   44SOL    HW2  132   5.514   5.199  28.517
   45SOL     OW  133   8.931   4.293  26.604
   45SOL    HW1  134   8.837   4.303  26.570
   45SOL    HW2  135   8.991   4.355  26.554
   46SOL     OW  136   7.971   4.674  28.069
   46SOL    HW1  137   8.059   4.684  28.022
   46SOL    HW2  138   7.919   4.759  28.062
   47SOL     OW  139   8.158   5.560  26.844
   47SOL    HW1  140   8.149   5.615  26.761
   47SOL    HW2  141   8.213   5.610  26.911
   48SOL     OW  142   8.221   5.924  25.532
   48SOL    HW1  143   8.169   5.907  25.616
   48SOL    HW2  144   8.159   5.922  25.454
   49SOL     OW  145  10.610   7.490  25.565
   49SOL    HW1  146  10.607   7.446  25.475
   49SOL    HW2  147  10.557   7.575  25.562
   50SOL     OW  148   6.215   5.699  27.084
   50SOL    HW1  149   6.171   5.715  26.996
   50SOL    HW2  150   6.262   5.611  27.083
   51SOL     OW  151   6.324   6.497  25.460
   51SOL    HW1  152   6.318   6.423  25.527
   51SOL    HW2  153   6.301   6.462  25.370
   52SOL     OW  154   8.407   5.011  26.754
   52SOL    HW1  155   8.498   5.053  26.757
   52SOL    HW2  156   8.379   4.998  26.659
   53SOL     OW  157   9.556   4.447  24.414
   53SOL    HW1  158   9.532   4.415  24.322
   53SOL    HW2  159   9.646   4.411  24.439
   54SOL     OW  160  10.525   5.100  25.447
   54SOL    HW1  161  10.427   5.085  25.462
   54SOL    HW2  162  10.556   5.047  25.368
   55SOL     OW  163   9.295   5.604  27.796
   55SOL    HW1  164   9.230   5.669  27.757
   55SOL    HW2  165   9.258   5.567  27.881
   56SOL     OW  166  11.022   4.144  25.634
   56SOL    HW1  167  10.927   4.118  25.648
   56SOL    HW2  168  11.042   4.145  25.536
   57SOL     OW  169   9.566   5.123  25.679
   57SOL    HW1  170   9.524   5.068  25.750
   57SOL    HW2  171   9.545   5.220  25.694
   58SOL     OW  172   5.665   8.123  25.602
   58SOL    HW1  173   5.733   8.177  25.652
   58SOL    HW2  174   5.697   8.107  25.508
   59SOL     OW  175   6.062   6.709  26.265
   59SOL    HW1  176   5.984   6.668  26.313
   59SOL    HW2  177   6.105   6.778  26.323
   60SOL     OW  178  11.298   5.375  26.458
   60SOL    HW1  179  11.267   5.460  26.417
   60SOL    HW2  180  11.255   5.364  26.548
   61SOL     OW  181   5.940   6.786  27.969
   61SOL    HW1  182   5.844   6.762  27.983
   61SOL    HW2  183   5.968   6.851  28.040
   62SOL     OW  184   6.902   4.441  28.132
   62SOL    HW1  185   6.824   4.463  28.074
   62SOL    HW2  186   6.872   4.435  28.228
   63SOL     OW  187   8.522   6.750  25.357
   63SOL    HW1  188   8.511   6.846  25.330
   63SOL    HW2  189   8.445   6.722  25.414
   64SOL     OW  190  11.092   5.339  25.215
   64SOL    HW1  191  11.183   5.303  25.237
   64SOL    HW2  192  11.102   5.420  25.157
   65SOL     OW  193   5.788   4.581  27.072
   65SOL    HW1  194   5.812   4.660  27.015
   65SOL    HW2  195   5.725   4.610  27.144
   66SOL     OW  196   6.119   7.680  27.732
   66SOL    HW1  197   6.118   7.634  27.644
   66SOL    HW2  198   6.212   7.679  27.770
   67SOL     OW  199   8.766   5.909  25.226
   67SOL    HW1  200   8.865   5.923  25.228
   67SOL    HW2  201   8.746   5.811  25.229
   68SOL     OW  202   9.188   4.467  27.281
   68SOL    HW1  203   9.119   4.498  27.345
   68SOL    HW2  204   9.275   4.453  27.329
   69SOL     OW  205   5.929   5.676  25.727
   69SOL    HW1  206   5.973   5.605  25.672
   69SOL    HW2  207   5.830   5.674  25.711
   70SOL     OW  208   6.901   7.472  26.342
   70SOL    HW1  209   6.889   7.425  26.255
   70SOL    HW2  210   6.909   7.571  26.325
   71SOL     OW  211   5.046   4.918  27.360
   71SOL    HW1  212   5.005   4.997  27.315
   71SOL    HW2  213   5.127   4.888  27.310
   72SOL     OW  214   8.599   6.792  24.850
   72SOL    HW1  215   8.525   6.821  24.790
   72SOL    HW2  216   8.687   6.806  24.804
   73SOL     OW  217   6.589   4.771  26.268
   73SOL    HW1  218   6.528   4.695  26.291
   73SOL    HW2  219   6.677   4.735  26.240
   74SOL     OW  220   6.292   5.375  26.353
   74SOL    HW1  221   6.303   5.287  26.399
   74SOL    HW2  222   6.380   5.424  26.354
   75SOL     OW  223   7.414   7.816  26.386
   75SOL    HW1  224   7.343   7.823  26.317
   75SOL    HW2  225   7.432   7.906  26.425
   76SOL     OW  226   7.623   4.517  27.519
   76SOL    HW1  227   7.634   4.595  27.580
   76SOL    HW2  228   7.571   4.545  27.438
   77SOL     OW  229  10.509   7.097  25.782
   77SOL    HW1  230  10.559   7.183  25.790
   77SOL    HW2  231  10.422   7.113  25.736
   78SOL     OW  232   8.335   6.089  25.826
   78SOL    HW1  233   8.261   6.027  25.802
   78SOL    HW2  234   8.393   6.047  25.895
   79SOL     OW  235   9.880   3.338  24.993
   79SOL    HW1  236   9.813   3.281  25.041
   79SOL    HW2  237   9.856   3.435  25.006
   80SOL     OW  238   9.201   5.522  27.516
   80SOL    HW1  239   9.209   5.588  27.441
   80SOL    HW2  240   9.119   5.466  27.503
   81SOL     OW  241  10.297   4.891  26.419
   81SOL    HW1  242  10.382   4.943  26.425
   81SOL    HW2  243  10.223   4.942  26.462
   82SOL     OW  244   7.133   7.315  25.659
   82SOL    HW1  245   7.143   7.413  25.643
   82SOL    HW2  246   7.211   7.266  25.619
   83SOL     OW  247   7.583   9.847  26.457
   83SOL    HW1  248   7.519   9.794  26.512
   83SOL    HW2  249   7.646   9.896  26.516
   84SOL     OW  250   8.964   4.604  25.563
   84SOL    HW1  251   8.973   4.667  25.641
   84SOL    HW2  252   8.921   4.519  25.593
   85SOL     OW  253   9.471   5.437  24.166
   85SOL    HW1  254   9.389   5.489  24.190
   85SOL    HW2  255   9.479   5.357  24.226
   86SOL     OW  256   8.310   4.966  26.508
   86SOL    HW1  257   8.219   4.984  26.472
   86SOL    HW2  258   8.364   4.914  26.441
   87SOL     OW  259  10.524   6.645  26.278
   87SOL    HW1  260  10.576   6.723  26.243
   87SOL    HW2  261  10.427   6.659  26.260
   88SOL     OW  262   8.489   5.838  25.865
   88SOL    HW1  263   8.543   5.819  25.783
   88SOL    HW2  264   8.543   5.815  25.946
   89SOL     OW  265   4.666   6.503  26.982
   89SOL    HW1  266   4.728   6.581  26.995
   89SOL    HW2  267   4.590   6.510  27.047
   90SOL     OW  268   5.649   7.405  27.927
   90SOL    HW1  269   5.664   7.484  27.868
   90SOL    HW2  270   5.601   7.433  28.010
   91SOL     OW  271   8.671   6.768  27.373
   91SOL    HW1  272   8.595   6.762  27.438
   91SOL    HW2  273   8.724   6.683  27.375
   92SOL     OW  274   8.480   5.398  27.276
   92SOL    HW1  275   8.440   5.471  27.221
   92SOL    HW2  276   8.465   5.418  27.373
   93SOL     OW  277   9.066   3.731  24.607
   93SOL    HW1  278   9.105   3.811  24.653
   93SOL    HW2  279   9.134   3.658  24.602
   94SOL     OW  280   7.764   7.737  26.911
   94SOL    HW1  281   7.669   7.742  26.877
   94SOL    HW2  282   7.765   7.689  26.998
   95SOL     OW  283   8.970   5.132  24.518
   95SOL    HW1  284   9.065   5.162  24.525
   95SOL    HW2  285   8.911   5.201  24.560
   96SOL     OW  286   8.386   5.416  25.625
   96SOL    HW1  287   8.363   5.480  25.698
   96SOL    HW2  288   8.346   5.448  25.539
   97SOL     OW  289   8.255   4.509  27.725
   97SOL    HW1  290   8.236   4.573  27.799
   97SOL    HW2  291   8.204   4.535  27.643
   98SOL     OW  292   7.839   6.378  26.154
   98SOL    HW1  293   7.767   6.371  26.085
   98SOL    HW2  294   7.840   6.296  26.210
   99SOL     OW  295   5.254   7.176  26.524
   99SOL    HW1  296   5.277   7.181  26.621
   99SOL    HW2  297   5.211   7.089  26.504
  100SOL     OW  298   7.783   6.844  26.268
  100SOL    HW1  299   7.864   6.829  26.326
  100SOL    HW2  300   7.806   6.824  26.173
  101SOL     OW  301   9.763   4.843  25.693
  101SOL    HW1  302   9.690   4.807  25.751
  101SOL    HW2  303   9.739   4.936  25.665
  102SOL     OW  304   5.608   7.125  28.357
  102SOL    HW1  305   5.655   7.085  28.279
  102SOL    HW2  306   5.541   7.192  28.326
  103SOL     OW  307   8.675   5.292  26.964
  103SOL    HW1  308   8.664   5.233  27.044
  103SOL    HW2  309   8.766   5.334  26.966
  104SOL     OW  310   5.298   6.579  28.424
  104SOL    HW1  311   5.282   6.488  28.385
  104SOL    HW2  312   5.222   6.639  28.401
  105SOL     OW  313   5.402   4.748  27.449
  105SOL    HW1  314   5.457   4.799  27.384
  105SOL    HW2  315   5.352   4.676  27.402
  106SOL     OW  316   8.517   6.280  25.457
  106SOL    HW1  317   8.573   6.341  25.512
  106SOL    HW2  318   8.487   6.328  25.375
  107SOL     OW  319  10.222   6.381  24.511
  107SOL    HW1  320  10.157   6.305  24.505
  107SOL    HW2  321  10.296   6.357  24.575
  108SOL     OW  322   7.381   7.683  27.271
  108SOL    HW1  323   7.300   7.626  27.282
  108SOL    HW2  324   7.398   7.733  27.356
  109SOL     OW  325   8.939   5.235  25.364
  109SOL    HW1  326   8.925   5.276  25.274
  109SOL    HW2  327   8.852   5.200  25.399
  110SOL     OW  328   9.556   7.618  26.784
  110SOL    HW1  329   9.559   7.696  26.846
  110SOL    HW2  330   9.583   7.647  26.692
  111SOL     OW  331   9.077   5.667  25.000
  111SOL    HW1  332   9.018   5.588  24.981
  111SOL    HW2  333   9.116   5.699  24.914
  112SOL     OW  334  10.609   4.523  24.705
  112SOL    HW1  335  10.681   4.456  24.721
  112SOL    HW2  336  10.527   4.476  24.672
  113SOL     OW  337   5.646   5.545  26.662
  113SOL    HW1  338   5.706   5.567  26.739
  113SOL    HW2  339   5.552   5.533  26.694
  114SOL     OW  340   8.270   6.442  27.878
  114SOL    HW1  341   8.195   6.430  27.814
  114SOL    HW2  342   8.234   6.464  27.968
  115SOL     OW  343   9.576   4.776  25.314
  115SOL    HW1  344   9.493   4.721  25.319
  115SOL    HW2  345   9.610   4.776  25.220
  116SOL     OW  346   5.849   6.823  26.601
  116SOL    HW1  347   5.878   6.914  26.569
  116SOL    HW2  348   5.755   6.806  26.572
  117SOL     OW  349  11.193   5.662  26.318
  117SOL    HW1  350  11.190   5.760  26.296
  117SOL    HW2  351  11.133   5.643  26.395
  118SOL     OW  352   9.729   6.836  24.373
  118SOL    HW1  353   9.691   6.765  24.432
  118SOL    HW2  354   9.825   6.814  24.353
  119SOL     OW  355   7.912   5.447  26.159
  119SOL    HW1  356   7.872   5.502  26.232
  119SOL    HW2  357   8.005   5.478  26.140
  120SOL     OW  358   7.167   5.242  28.599
  120SOL    HW1  359   7.198   5.178  28.529
  120SOL    HW2  360   7.068   5.249  28.597
  121SOL     OW  361  10.796   6.506  24.908
  121SOL    HW1  362  10.770   6.470  24.998
  121SOL    HW2  363  10.744   6.459  24.837
  122SOL     OW  364   6.864   6.304  25.648
  122SOL    HW1  365   6.896   6.367  25.718
  122SOL    HW2  366   6.927   6.226  25.643
  123SOL     OW  367   7.254   4.719  26.673
  123SOL    HW1  368   7.349   4.689  26.677
  123SOL    HW2  369   7.247   4.813  26.706
  124SOL     OW  370   6.511   6.283  28.914
  124SOL    HW1  371   6.491   6.192  28.877
  124SOL    HW2  372   6.426   6.333  28.927
  125SOL     OW  373   6.240   7.338  27.111
  125SOL    HW1  374   6.204   7.286  27.033
  125SOL    HW2  375   6.338   7.320  27.119
  126SOL     OW  376   6.548   6.823  28.614
  126SOL    HW1  377   6.519   6.842  28.521
  126SOL    HW2  378   6.620   6.754  28.614
  127SOL     OW  379   5.575   6.836  26.984
  127SOL    HW1  380   5.568   6.924  27.032
  127SOL    HW2  381   5.665   6.830  26.940
  128SOL     OW  382   8.612   5.300  26.266
  128SOL    HW1  383   8.706   5.333  26.271
  128SOL    HW2  384   8.604   5.235  26.190
  129SOL     OW  385   9.688   3.175  25.129
  129SOL    HW1  386   9.618   3.220  25.185
  129SOL    HW2  387   9.682   3.076  25.143
  130SOL     OW  388  11.372   5.055  25.664
  130SOL    HW1  389  11.363   5.147  25.702
  130SOL    HW2  390  11.295   4.999  25.693
  131SOL     OW  391  10.656   6.919  26.526
  131SOL    HW1  392  10.747   6.877  26.532
  131SOL    HW2  393  10.645   6.984  26.601
  132SOL     OW  394   4.850   8.087  26.446
  132SOL    HW1  395   4.853   8.082  26.346
  132SOL    HW2  396   4.931   8.135  26.480
  133SOL     OW  397   7.766   7.054  27.742
  133SOL    HW1  398   7.742   7.009  27.656
  133SOL    HW2  399   7.688   7.105  27.776
  134SOL     OW  400   6.743   7.246  25.548
  134SOL    HW1  401   6.720   7.301  25.467
  134SOL    HW2  402   6.820   7.186  25.526
  135SOL     OW  403   5.319   4.941  27.843
  135SOL    HW1  404   5.281   4.909  27.756
  135SOL    HW2  405   5.279   5.030  27.866
  136SOL     OW  406   6.122   6.507  27.126
  136SOL    HW1  407   6.126   6.603  27.096
  136SOL    HW2  408   6.091   6.504  27.221
  137SOL     OW  409   5.782   6.988  27.258
  137SOL    HW1  410   5.702   7.025  27.211
  137SOL    HW2  411   5.807   7.050  27.333
  138SOL     OW  412   5.399   5.525  26.817
  138SOL    HW1  413   5.381   5.474  26.901
  138SOL    HW2  414   5.403   5.623  26.837
  139SOL     OW  415   9.489   7.204  26.098
  139SOL    HW1  416   9.551   7.269  26.054
  139SOL    HW2  417   9.539   7.119  26.118
  140SOL     OW  418  11.023   5.905  26.104
  140SOL    HW1  419  11.061   5.952  26.183
  140SOL    HW2  420  11.067   5.939  26.021
  141SOL     OW  421  10.761   5.117  26.891
  141SOL    HW1  422  10.859   5.097  26.891
  141SOL    HW2  423  10.716   5.063  26.820
  142SOL     OW  424   9.832   4.025  24.431
  142SOL    HW1  425   9.815   4.122  24.416
  142SOL    HW2  426   9.927   4.012  24.459
  143SOL     OW  427   5.824   4.631  27.586
  143SOL    HW1  428   5.865   4.698  27.646
  143SOL    HW2  429   5.890   4.559  27.565
  144SOL     OW  430   9.862   7.603  25.418
  144SOL    HW1  431   9.788   7.595  25.352
  144SOL    HW2  432   9.945   7.560  25.381
  145SOL     OW  433   7.344   8.364  25.872
  145SOL    HW1  434   7.287   8.396  25.796
  145SOL    HW2  435   7.434   8.336  25.837
  146SOL     OW  436   8.570   6.541  24.909
  146SOL    HW1  437   8.581   6.637  24.886
  146SOL    HW2  438   8.558   6.531  25.008
  147SOL     OW  439   6.157   6.984  25.937
  147SOL    HW1  440   6.135   6.890  25.909
  147SOL    HW2  441   6.133   7.047  25.863
  148SOL     OW  442   8.825   5.457  27.739
  148SOL    HW1  443   8.788   5.525  27.676
  148SOL    HW2  444   8.818   5.491  27.833
  149SOL     OW  445  11.028   4.491  25.505
  149SOL    HW1  446  11.114   4.477  25.456
  149SOL    HW2  447  10.957   4.433  25.466
  150SOL     OW  448   8.311   5.265  26.771
  150SOL    HW1  449   8.341   5.273  26.676
  150SOL    HW2  450   8.247   5.188  26.780
  151SOL     OW  451   9.143   7.457  25.355
  151SOL    HW1  452   9.207   7.408  25.295
  151SOL    HW2  453   9.059   7.402  25.366
  152SOL     OW  454   7.875   6.754  25.773
  152SOL    HW1  455   7.889   6.801  25.686
  152SOL    HW2  456   7.919   6.664  25.768
  153SOL     OW  457   8.649   3.881  25.066
  153SOL    HW1  458   8.701   3.965  25.050
  153SOL    HW2  459   8.677   3.840  25.152
  154SOL     OW  460   8.370   7.028  27.497
  154SOL    HW1  461   8.363   6.939  27.452
  154SOL    HW2  462   8.278   7.064  27.515
  155SOL     OW  463  11.159   6.012  25.867
  155SOL    HW1  464  11.151   5.958  25.783
  155SOL    HW2  465  11.255   6.035  25.883
  156SOL     OW  466   5.978   5.788  27.296
  156SOL    HW1  467   5.926   5.865  27.258
  156SOL    HW2  468   6.019   5.815  27.383
  157SOL     OW  469   5.515   5.417  28.339
  157SOL    HW1  470   5.486   5.417  28.244
  157SOL    HW2  471   5.545   5.509  28.364
  158SOL     OW  472   7.081   7.972  25.418
  158SOL    HW1  473   7.123   7.905  25.480
  158SOL    HW2  474   7.150   8.011  25.358
  159SOL     OW  475   7.594   7.541  27.213
  159SOL    HW1  476   7.513   7.595  27.235
  159SOL    HW2  477   7.568   7.467  27.151
  160SOL     OW  478   6.644   5.897  25.879
  160SOL    HW1  479   6.592   5.920  25.797
  160SOL    HW2  480   6.643   5.798  25.893
  161SOL     OW  481   6.439   5.439  28.764
  161SOL    HW1  482   6.406   5.472  28.675
  161SOL    HW2  483   6.497   5.510  28.806
  162SOL     OW  484   5.068   6.248  26.446
  162SOL    HW1  485   5.088   6.312  26.372
  162SOL    HW2  486   5.013   6.294  26.516
  163SOL     OW  487   5.740   6.959  27.653
  163SOL    HW1  488   5.817   7.017  27.679
  163SOL    HW2  489   5.751   6.930  27.558
  164SOL     OW  490   5.257   6.350  28.325
  164SOL    HW1  491   5.315   6.338  28.245
  164SOL    HW2  492   5.161   6.341  28.300
  165SOL     OW  493   4.909   5.526  28.098
  165SOL    HW1  494   4.948   5.573  28.019
  165SOL    HW2  495   4.872   5.594  28.162
  166SOL     OW  496   7.288   5.516  28.543
  166SOL    HW1  497   7.316   5.589  28.605
  166SOL    HW2  498   7.194   5.488  28.564
  167SOL     OW  499  11.264   4.681  24.895
  167SOL    HW1  500  11.221   4.610  24.839
  167SOL    HW2  501  11.329   4.639  24.959
  168SOL     OW  502   7.227   6.725  28.628
  168SOL    HW1  503   7.237   6.649  28.563
  168SOL    HW2  504   7.177   6.693  28.708
  169SOL     OW  505   6.345   7.331  27.432
  169SOL    HW1  506   6.402   7.337  27.350
  169SOL    HW2  507   6.252   7.360  27.410
  170SOL     OW  508   6.934   6.173  28.856
  170SOL    HW1  509   6.970   6.086  28.822
  170SOL    HW2  510   6.835   6.166  28.866
  171SOL     OW  511   7.849   5.212  28.066
  171SOL    HW1  512   7.873   5.303  28.099
  171SOL    HW2  513   7.763   5.183  28.107
  172SOL     OW  514   8.621   3.436  25.428
  172SOL    HW1  515   8.691   3.470  25.364
  172SOL    HW2  516   8.551   3.386  25.377
  173SOL     OW  517   7.795   4.857  28.087
  173SOL    HW1  518   7.728   4.789  28.118
  173SOL    HW2  519   7.795   4.935  28.150
  174SOL     OW  520   5.651   6.582  25.667
  174SOL    HW1  521   5.599   6.616  25.745
  174SOL    HW2  522   5.635   6.484  25.655
  175SOL     OW  523   5.554   7.430  25.554
  175SOL    HW1  524   5.649   7.456  25.536
  175SOL    HW2  525   5.509   7.406  25.469
  176SOL     OW  526   8.430   5.752  28.237
  176SOL    HW1  527   8.345   5.795  28.208
  176SOL    HW2  528   8.421   5.653  28.231
  177SOL     OW  529  10.279   4.648  26.584
  177SOL    HW1  530  10.285   4.730  26.528
  177SOL    HW2  531  10.369   4.604  26.588
  178SOL     OW  532   9.931   4.548  25.304
  178SOL    HW1  533   9.870   4.593  25.370
  178SOL    HW2  534  10.015   4.602  25.294
  179SOL     OW  535   9.833   3.696  26.495
  179SOL    HW1  536   9.768   3.719  26.567
  179SOL    HW2  537   9.846   3.597  26.492
  180SOL     OW  538   6.975   8.350  26.806
  180SOL    HW1  539   6.953   8.276  26.743
  180SOL    HW2  540   7.047   8.320  26.869
  181SOL     OW  541   9.135   6.029  24.276
  181SOL    HW1  542   9.199   6.069  24.341
  181SOL    HW2  543   9.173   5.943  24.241
  182SOL     OW  544   8.622   4.494  25.517
  182SOL    HW1  545   8.703   4.451  25.556
  182SOL    HW2  546   8.589   4.439  25.440
  183SOL     OW  547   8.615   7.427  26.082
  183SOL    HW1  548   8.549   7.352  26.093
  183SOL    HW2  549   8.611   7.461  25.989
  184SOL     OW  550   5.136   5.026  26.744
  184SOL    HW1  551   5.064   5.091  26.722
  184SOL    HW2  552   5.219   5.074  26.772
  185SOL     OW  553   9.842   3.696  27.302
  185SOL    HW1  554   9.804   3.772  27.250
  185SOL    HW2  555   9.939   3.713  27.321
  186SOL     OW  556   6.159   7.862  25.276
  186SOL    HW1  557   6.208   7.872  25.362
  186SOL    HW2  558   6.205   7.915  25.205
  187SOL     OW  559   6.183   6.204  26.369
  187SOL    HW1  560   6.151   6.275  26.432
  187SOL    HW2  561   6.169   6.235  26.275
  188SOL     OW  562   8.046   6.248  26.102
  188SOL    HW1  563   8.024   6.151  26.097
  188SOL    HW2  564   8.114   6.263  26.174
  189SOL     OW  565   7.159   8.750  25.623
  189SOL    HW1  566   7.110   8.760  25.536
  189SOL    HW2  567   7.248   8.796  25.616
  190SOL     OW  568  10.659   6.917  25.738
  190SOL    HW1  569  10.678   6.873  25.649
  190SOL    HW2  570  10.591   6.989  25.725
  191SOL     OW  571   7.052   7.512  27.563
  191SOL    HW1  572   7.013   7.592  27.518
  191SOL    HW2  573   7.151   7.523  27.572
  192SOL     OW  574   9.173   3.635  26.789
  192SOL    HW1  575   9.231   3.716  26.798
  192SOL    HW2  576   9.230   3.553  26.795
  193SOL     OW  577  11.230   4.578  24.485
  193SOL    HW1  578  11.163   4.546  24.418
  193SOL    HW2  579  11.199   4.553  24.577
  194SOL     OW  580   6.199   8.743  26.116
  194SOL    HW1  581   6.269   8.677  26.142
  194SOL    HW2  582   6.219   8.779  26.024
  195SOL     OW  583   7.119   8.282  27.015
  195SOL    HW1  584   7.100   8.187  27.040
  195SOL    HW2  585   7.097   8.342  27.092
  196SOL     OW  586   9.652   5.201  25.282
  196SOL    HW1  587   9.658   5.122  25.343
  196SOL    HW2  588   9.675   5.284  25.333
  197SOL     OW  589   9.454   4.587  25.442
  197SOL    HW1  590   9.514   4.508  25.450
  197SOL    HW2  591   9.372   4.560  25.391
  198SOL     OW  592   8.681   6.011  25.459
  198SOL    HW1  593   8.629   6.097  25.458
  198SOL    HW2  594   8.658   5.958  25.378
  199SOL     OW  595   5.483   6.564  26.229
  199SOL    HW1  596   5.455   6.502  26.301
  199SOL    HW2  597   5.558   6.523  26.176
  200SOL     OW  598   5.082   7.067  27.706
  200SOL    HW1  599   5.014   7.099  27.640
  200SOL    HW2  600   5.066   7.111  27.794
  201SOL     OW  601   8.786   5.585  25.503
  201SOL    HW1  602   8.869   5.529  25.513
  201SOL    HW2  603   8.778   5.615  25.409
  202SOL     OW  604   5.990   4.442  27.528
  202SOL    HW1  605   6.036   4.359  27.559
  202SOL    HW2  606   5.998   4.450  27.429
  203SOL     OW  607   7.517   6.848  28.088
  203SOL    HW1  608   7.484   6.862  28.181
  203SOL    HW2  609   7.571   6.928  28.060
  204SOL     OW  610   6.726   7.256  28.279
  204SOL    HW1  611   6.801   7.206  28.323
  204SOL    HW2  612   6.740   7.354  28.290
  205SOL     OW  613   8.687   5.365  27.887
  205SOL    HW1  614   8.588   5.377  27.886
  205SOL    HW2  615   8.714   5.309  27.966
  206SOL     OW  616   5.169   5.201  28.200
  206SOL    HW1  617   5.266   5.181  28.213
  206SOL    HW2  618   5.151   5.296  28.225
  207SOL     OW  619   9.787   5.015  26.963
  207SOL    HW1  620   9.710   4.977  26.912
  207SOL    HW2  621   9.826   5.091  26.913
  208SOL     OW  622   8.464   6.608  27.763
  208SOL    HW1  623   8.556   6.575  27.786
  208SOL    HW2  624   8.396   6.548  27.805
  209SOL     OW  625   6.907   8.559  26.830
  209SOL    HW1  626   6.994   8.607  26.847
  209SOL    HW2  627   6.926   8.467  26.797
  210SOL     OW  628   7.724   8.068  26.401
  210SOL    HW1  629   7.789   8.143  26.410
  210SOL    HW2  630   7.707   8.050  26.304
  211SOL     OW  631   8.597   4.998  27.877
  211SOL    HW1  632   8.527   4.929  27.893
  211SOL    HW2  633   8.625   4.997  27.781
  212SOL     OW  634   6.840   9.149  26.084
  212SOL    HW1  635   6.759   9.094  26.063
  212SOL    HW2  636   6.922   9.094  26.069
  213SOL     OW  637   4.718   6.206  27.822
  213SOL    HW1  638   4.768   6.292  27.837
  213SOL    HW2  639   4.622   6.226  27.806
  214SOL     OW  640   6.997   6.068  25.587
  214SOL    HW1  641   7.018   6.017  25.671
  214SOL    HW2  642   6.941   6.011  25.527
  215SOL     OW  643   6.526   7.292  27.626
  215SOL    HW1  644   6.534   7.193  27.635
  215SOL    HW2  645   6.469   7.314  27.547
  216SOL     OW  646   7.126   7.294  27.759
  216SOL    HW1  647   7.101   7.366  27.694
  216SOL    HW2  648   7.146   7.209  27.709
  217SOL     OW  649  11.146   4.027  24.929
  217SOL    HW1  650  11.239   4.020  24.964
  217SOL    HW2  651  11.122   3.944  24.878
  218SOL     OW  652   8.827   4.021  26.958
  218SOL    HW1  653   8.862   4.030  26.865
  218SOL    HW2  654   8.806   4.111  26.995
  219SOL     OW  655   6.675   7.535  26.488
  219SOL    HW1  656   6.725   7.588  26.557
  219SOL    HW2  657   6.740   7.500  26.420
  220SOL     OW  658  10.046   7.240  27.279
  220SOL    HW1  659  10.094   7.199  27.201
  220SOL    HW2  660   9.954   7.268  27.250
  221SOL     OW  661   6.794   7.403  27.838
  221SOL    HW1  662   6.706   7.429  27.798
  221SOL    HW2  663   6.861   7.392  27.765
  222SOL     OW  664   6.362   5.680  26.771
  222SOL    HW1  665   6.344   5.614  26.844
  222SOL    HW2  666   6.280   5.733  26.753
  223SOL     OW  667  10.359   3.885  26.221
  223SOL    HW1  668  10.340   3.830  26.140
  223SOL    HW2  669  10.434   3.948  26.202
  224SOL     OW  670  10.451   6.978  26.078
  224SOL    HW1  671  10.469   7.014  25.987
  224SOL    HW2  672  10.533   6.988  26.135
  225SOL     OW  673   8.560   3.533  25.056
  225SOL    HW1  674   8.645   3.570  25.020
  225SOL    HW2  675   8.509   3.488  24.982
  226SOL     OW  676   8.796   3.520  25.269
  226SOL    HW1  677   8.794   3.464  25.187
  226SOL    HW2  678   8.785   3.617  25.244
  227SOL     OW  679   6.827   9.253  26.418
  227SOL    HW1  680   6.858   9.179  26.477
  227SOL    HW2  681   6.732   9.277  26.441
  228SOL     OW  682  11.405   4.815  26.023
  228SOL    HW1  683  11.317   4.839  26.065
  228SOL    HW2  684  11.393   4.734  25.965
  229SOL     OW  685   5.231   6.864  28.119
  229SOL    HW1  686   5.175   6.787  28.151
  229SOL    HW2  687   5.261   6.918  28.198
  230SOL     OW  688   6.491   7.157  28.424
  230SOL    HW1  689   6.483   7.061  28.400
  230SOL    HW2  690   6.570   7.197  28.377
  231SOL     OW  691  10.150   4.043  26.321
  231SOL    HW1  692  10.225   3.987  26.285
  231SOL    HW2  693  10.097   3.990  26.387
  232SOL     OW  694   7.293   4.924  26.048
  232SOL    HW1  695   7.263   5.005  25.997
  232SOL    HW2  696   7.234   4.847  26.024
  233SOL     OW  697   8.454   6.229  27.926
  233SOL    HW1  698   8.390   6.304  27.909
  233SOL    HW2  699   8.410   6.160  27.982
  234SOL     OW  700   8.270   4.859  25.848
  234SOL    HW1  701   8.287   4.772  25.800
  234SOL    HW2  702   8.303   4.934  25.791
  235SOL     OW  703   6.921   7.752  27.948
  235SOL    HW1  704   6.896   7.798  28.033
  235SOL    HW2  705   6.838   7.724  27.899
  236SOL     OW  706   6.295   4.512  26.585
  236SOL    HW1  707   6.327   4.606  26.575
  236SOL    HW2  708   6.373   4.452  26.602
  237SOL     OW  709   5.093   7.332  26.365
  237SOL    HW1  710   5.152   7.275  26.423
  237SOL    HW2  711   5.002   7.337  26.406
  238SOL     OW  712   7.420   6.888  28.360
  238SOL    HW1  713   7.391   6.850  28.448
  238SOL    HW2  714   7.439   6.986  28.371
  239SOL     OW  715   6.829   6.452  25.440
  239SOL    HW1  716   6.843   6.394  25.521
  239SOL    HW2  717   6.822   6.393  25.359
  240SOL     OW  718   4.829   5.991  27.528
  240SOL    HW1  719   4.752   5.959  27.472
  240SOL    HW2  720   4.804   6.078  27.572
  241SOL     OW  721  10.312   6.920  24.650
  241SOL    HW1  722  10.407   6.917  24.684
  241SOL    HW2  723  10.308   6.980  24.571
  242SOL     OW  724   7.914   7.265  26.183
  242SOL    HW1  725   7.838   7.209  26.216
  242SOL    HW2  726   7.898   7.361  26.208
  243SOL     OW  727   5.854   6.735  27.327
  243SOL    HW1  728   5.828   6.828  27.302
  243SOL    HW2  729   5.953   6.731  27.342
  244SOL     OW  730   8.575   5.525  28.260
  244SOL    HW1  731   8.586   5.521  28.359
  244SOL    HW2  732   8.562   5.433  28.224
  245SOL     OW  733   6.145   7.063  27.499
  245SOL    HW1  734   6.098   7.095  27.581
  245SOL    HW2  735   6.209   7.133  27.468
  246SOL     OW  736  10.294   5.345  25.253
  246SOL    HW1  737  10.232   5.300  25.189
  246SOL    HW2  738  10.250   5.427  25.289
  247SOL     OW  739   6.415   4.812  28.365
  247SOL    HW1  740   6.448   4.811  28.271
  247SOL    HW2  741   6.439   4.727  28.411
  248SOL     OW  742   8.981   4.883  27.464
  248SOL    HW1  743   9.072   4.876  27.421
  248SOL    HW2  744   8.956   4.795  27.503
  249SOL     OW  745   9.370   6.625  24.304
  249SOL    HW1  746   9.370   6.529  24.330
  249SOL    HW2  747   9.441   6.674  24.357
  250SOL     OW  748   9.037   5.418  25.532
  250SOL    HW1  749   9.000   5.349  25.470
  250SOL    HW2  750   9.122   5.455  25.496
  251SOL     OW  751   7.153   6.335  28.805
  251SOL    HW1  752   7.074   6.277  28.823
  251SOL    HW2  753   7.235   6.295  28.846
  252SOL     OW  754   5.312   5.764  26.512
  252SOL    HW1  755   5.256   5.793  26.589
  252SOL    HW2  756   5.291   5.820  26.432
  253SOL     OW  757   6.802   4.964  29.085
  253SOL    HW1  758   6.728   4.978  29.019
  253SOL    HW2  759   6.764   4.964  29.177
  254SOL     OW  760   6.779   7.404  27.592
  254SOL    HW1  761   6.746   7.335  27.528
  254SOL    HW2  762   6.873   7.429  27.568
  255SOL     OW  763   8.725   3.881  26.482
  255SOL    HW1  764   8.801   3.933  26.444
  255SOL    HW2  765   8.691   3.926  26.564
  256SOL     OW  766  10.014   5.317  24.024
  256SOL    HW1  767  10.064   5.308  24.110
  256SOL    HW2  768  10.079   5.321  23.948
  257SOL     OW  769   6.028   7.669  26.298
  257SOL    HW1  770   6.022   7.628  26.207
  257SOL    HW2  771   6.077   7.756  26.293
  258SOL     OW  772   6.972   7.086  25.683
  258SOL    HW1  773   6.998   6.992  25.660
  258SOL    HW2  774   7.048   7.148  25.665
  259SOL     OW  775   4.907   5.191  27.204
  259SOL    HW1  776   4.897   5.114  27.142
  259SOL    HW2  777   4.820   5.240  27.211
  260SOL     OW  778   4.666   5.583  27.698
  260SOL    HW1  779   4.672   5.677  27.730
  260SOL    HW2  780   4.732   5.570  27.623
  261SOL     OW  781   5.316   7.372  25.956
  261SOL    HW1  782   5.234   7.429  25.950
  261SOL    HW2  783   5.298   7.284  25.911
  262SOL     OW  784   9.481   5.019  25.402
  262SOL    HW1  785   9.416   4.978  25.465
  262SOL    HW2  786   9.531   4.947  25.354
  263SOL     OW  787   5.711   4.754  28.315
  263SOL    HW1  788   5.732   4.798  28.227
  263SOL    HW2  789   5.796   4.719  28.355
  264SOL     OW  790   6.172   7.918  26.264
  264SOL    HW1  791   6.247   7.981  26.286
  264SOL    HW2  792   6.176   7.894  26.167
  265SOL     OW  793   9.291   4.355  25.282
  265SOL    HW1  794   9.315   4.368  25.185
  265SOL    HW2  795   9.195   4.328  25.289
  266SOL     OW  796   6.120   6.805  27.349
  266SOL    HW1  797   6.128   6.891  27.399
  266SOL    HW2  798   6.179   6.736  27.390
  267SOL     OW  799   4.948   4.432  27.041
  267SOL    HW1  800   5.030   4.490  27.047
  267SOL    HW2  801   4.892   4.445  27.123
  268SOL     OW  802   8.829   2.860  25.540
  268SOL    HW1  803   8.834   2.763  25.562
  268SOL    HW2  804   8.734   2.884  25.518
  269SOL     OW  805  11.367   5.973  26.151
  269SOL    HW1  806  11.287   5.994  26.207
  269SOL    HW2  807  11.445   6.028  26.181
  270SOL     OW  808   9.760   4.265  24.158
  270SOL    HW1  809   9.825   4.321  24.106
  270SOL    HW2  810   9.667   4.286  24.128
  271SOL     OW  811   5.896   7.837  27.781
  271SOL    HW1  812   5.977   7.780  27.763
  271SOL    HW2  813   5.815   7.779  27.781
  272SOL     OW  814   7.182   4.667  28.415
  272SOL    HW1  815   7.209   4.584  28.366
  272SOL    HW2  816   7.128   4.641  28.496
  273SOL     OW  817   6.987   9.373  26.214
  273SOL    HW1  818   6.938   9.298  26.170
  273SOL    HW2  819   6.954   9.385  26.308
  274SOL     OW  820   8.269   6.903  25.894
  274SOL    HW1  821   8.235   6.852  25.973
  274SOL    HW2  822   8.326   6.844  25.837
  275SOL     OW  823   7.649   6.893  25.511
  275SOL    HW1  824   7.665   6.991  25.501
  275SOL    HW2  825   7.636   6.852  25.421
  276SOL     OW  826  11.262   6.510  26.414
  276SOL    HW1  827  11.310   6.422  26.417
  276SOL    HW2  828  11.245   6.536  26.319
  277SOL     OW  829   8.406   5.289  26.473
  277SOL    HW1  830   8.476   5.293  26.402
  277SOL    HW2  831   8.376   5.194  26.485
  278SOL     OW  832   7.800   4.444  27.134
  278SOL    HW1  833   7.795   4.541  27.158
  278SOL    HW2  834   7.808   4.434  27.035
  279SOL     OW  835   7.597   4.321  27.895
  279SOL    HW1  836   7.693   4.345  27.881
  279SOL    HW2  837   7.588   4.221  27.894
  280SOL     OW  838   7.067   8.263  27.252
  280SOL    HW1  839   7.114   8.184  27.290
  280SOL    HW2  840   6.968   8.251  27.263
  281SOL     OW  841   6.056   7.112  26.149
  281SOL    HW1  842   6.107   7.047  26.205
  281SOL    HW2  843   6.072   7.092  26.052
  282SOL     OW  844   5.689   5.744  28.571
  282SOL    HW1  845   5.768   5.764  28.513
  282SOL    HW2  846   5.656   5.829  28.613
  283SOL     OW  847   8.314   5.229  27.166
  283SOL    HW1  848   8.337   5.132  27.169
  283SOL    HW2  849   8.395   5.282  27.142
  284SOL     OW  850   5.564   6.133  28.739
  284SOL    HW1  851   5.595   6.038  28.738
  284SOL    HW2  852   5.477   6.139  28.787
  285SOL     OW  853   8.369   5.484  28.209
  285SOL    HW1  854   8.334   5.410  28.267
  285SOL    HW2  855   8.363   5.456  28.113
  286SOL     OW  856   7.204   8.444  25.685
  286SOL    HW1  857   7.253   8.489  25.610
  286SOL    HW2  858   7.140   8.377  25.647
  287SOL     OW  859   8.335   6.671  25.501
  287SOL    HW1  860   8.367   6.654  25.594
  287SOL    HW2  861   8.264   6.742  25.503
  288SOL     OW  862  10.896   4.314  23.690
  288SOL    HW1  863  10.979   4.365  23.716
  288SOL    HW2  864  10.822   4.379  23.671
  289SOL     OW  865   9.684   4.357  27.405
  289SOL    HW1  866   9.689   4.262  27.377
  289SOL    HW2  867   9.599   4.398  27.371
  290SOL     OW  868   7.826   4.400  27.357
  290SOL    HW1  869   7.798   4.371  27.265
  290SOL    HW2  870   7.745   4.418  27.412
  291SOL     OW  871   4.604   5.522  27.092
  291SOL    HW1  872   4.648   5.433  27.103
  291SOL    HW2  873   4.511   5.517  27.127
  292SOL     OW  874   8.541   3.094  25.343
  292SOL    HW1  875   8.506   3.025  25.407
  292SOL    HW2  876   8.537   3.057  25.250
  293SOL     OW  877   6.977   5.863  25.661
  293SOL    HW1  878   6.991   5.805  25.741
  293SOL    HW2  879   6.903   5.824  25.605
  294SOL     OW  880   5.769   6.065  26.598
  294SOL    HW1  881   5.834   6.058  26.522
  294SOL    HW2  882   5.678   6.039  26.567
  295SOL     OW  883   6.864   5.797  29.010
  295SOL    HW1  884   6.805   5.875  28.990
  295SOL    HW2  885   6.942   5.828  29.065
  296SOL     OW  886   7.597   5.973  25.477
  296SOL    HW1  887   7.541   6.053  25.500
  296SOL    HW2  888   7.631   5.931  25.561
  297SOL     OW  889  10.724   4.325  23.363
  297SOL    HW1  890  10.702   4.380  23.444
  297SOL    HW2  891  10.645   4.269  23.337
  298SOL     OW  892   7.819   5.296  26.035
  298SOL    HW1  893   7.847   5.391  26.050
  298SOL    HW2  894   7.720   5.293  26.022
  299SOL     OW  895  10.345   3.188  24.740
  299SOL    HW1  896  10.390   3.237  24.814
  299SOL    HW2  897  10.339   3.091  24.763
  300SOL     OW  898   7.948   4.900  25.995
  300SOL    HW1  899   8.008   4.864  26.067
  300SOL    HW2  900   7.883   4.830  25.967
  301SOL     OW  901   5.581   6.774  26.520
  301SOL    HW1  902   5.550   6.848  26.460
  301SOL    HW2  903   5.522   6.770  26.601
  302SOL     OW  904  10.744   7.581  24.897
  302SOL    HW1  905  10.662   7.528  24.919
  302SOL    HW2  906  10.749   7.596  24.799
  303SOL     OW  907   7.972   6.395  25.887
  303SOL    HW1  908   7.999   6.341  25.966
  303SOL    HW2  909   7.872   6.402  25.885
  304SOL     OW  910   7.465   5.319  28.709
  304SOL    HW1  911   7.534   5.271  28.655
  304SOL    HW2  912   7.374   5.295  28.675
  305SOL     OW  913   5.978   6.820  27.707
  305SOL    HW1  914   5.963   6.807  27.805
  305SOL    HW2  915   6.056   6.880  27.692
  306SOL     OW  916   5.936   8.629  26.109
  306SOL    HW1  917   6.028   8.669  26.111
  306SOL    HW2  918   5.868   8.701  26.122
  307SOL     OW  919   5.980   6.041  26.351
  307SOL    HW1  920   5.961   5.976  26.277
  307SOL    HW2  921   6.037   5.997  26.420
  308SOL     OW  922  11.473   4.587  25.531
  308SOL    HW1  923  11.543   4.537  25.581
  308SOL    HW2  924  11.506   4.680  25.510
  309SOL     OW  925   5.452   4.726  27.886
  309SOL    HW1  926   5.482   4.675  27.967
  309SOL    HW2  927   5.401   4.807  27.915
  310SOL     OW  928  10.660   3.387  25.294
  310SOL    HW1  929  10.641   3.308  25.351
  310SOL    HW2  930  10.628   3.470  25.339
  311SOL     OW  931   8.490   7.035  25.279
  311SOL    HW1  932   8.553   7.057  25.204
  311SOL    HW2  933   8.509   7.094  25.357
  312SOL     OW  934  11.615   6.722  25.395
  312SOL    HW1  935  11.549   6.646  25.395
  312SOL    HW2  936  11.688   6.702  25.330
  313SOL     OW  937   6.745   8.713  26.617
  313SOL    HW1  938   6.796   8.794  26.588
  313SOL    HW2  939   6.657   8.741  26.656
  314SOL     OW  940   8.118   5.329  26.991
  314SOL    HW1  941   8.132   5.412  26.938
  314SOL    HW2  942   8.204   5.278  26.998
  315SOL     OW  943   8.816   5.637  25.235
  315SOL    HW1  944   8.908   5.619  25.201
  315SOL    HW2  945   8.749   5.589  25.178
  316SOL     OW  946   5.425   6.764  26.758
  316SOL    HW1  947   5.478   6.790  26.838
  316SOL    HW2  948   5.391   6.671  26.769
  317SOL     OW  949   7.894   4.396  27.851
  317SOL    HW1  950   7.908   4.422  27.755
  317SOL    HW2  951   7.952   4.318  27.873
  318SOL     OW  952   6.471   7.527  27.675
  318SOL    HW1  953   6.561   7.491  27.651
  318SOL    HW2  954   6.443   7.595  27.607
  319SOL     OW  955   8.009   7.568  26.630
  319SOL    HW1  956   7.974   7.474  26.628
  319SOL    HW2  957   8.000   7.609  26.539
  320SOL     OW  958   5.871   7.562  28.076
  320SOL    HW1  959   5.900   7.511  28.157
  320SOL    HW2  960   5.835   7.651  28.105
  321SOL     OW  961   7.441   7.231  27.825
  321SOL    HW1  962   7.479   7.221  27.917
  321SOL    HW2  963   7.343   7.250  27.833
  322SOL     OW  964   8.009   4.707  25.905
  322SOL    HW1  965   8.094   4.756  25.887
  322SOL    HW2  966   8.028   4.628  25.963
  323SOL     OW  967   8.405   4.813  26.940
  323SOL    HW1  968   8.406   4.886  26.872
  323SOL    HW2  969   8.370   4.729  26.899
  324SOL     OW  970   4.597   5.603  26.764
  324SOL    HW1  971   4.502   5.615  26.735
  324SOL    HW2  972   4.640   5.530  26.711
  325SOL     OW  973   5.417   6.694  25.940
  325SOL    HW1  974   5.438   6.654  26.029
  325SOL    HW2  975   5.483   6.660  25.873
  326SOL     OW  976   9.600   7.078  24.383
  326SOL    HW1  977   9.647   6.990  24.379
  326SOL    HW2  978   9.668   7.152  24.385
  327SOL     OW  979   6.013   7.568  26.070
  327SOL    HW1  980   6.034   7.637  26.002
  327SOL    HW2  981   5.920   7.533  26.055
  328SOL     OW  982   8.939   3.057  25.944
  328SOL    HW1  983   8.924   3.155  25.947
  328SOL    HW2  984   8.895   3.014  26.023
  329SOL     OW  985   4.879   4.980  27.034
  329SOL    HW1  986   4.877   4.991  26.934
  329SOL    HW2  987   4.819   4.905  27.061
  330SOL     OW  988   5.572   5.772  26.528
  330SOL    HW1  989   5.599   5.690  26.576
  330SOL    HW2  990   5.472   5.775  26.519
  331SOL     OW  991   8.063   6.351  25.679
  331SOL    HW1  992   7.994   6.364  25.609
  331SOL    HW2  993   8.096   6.257  25.677
  332SOL     OW  994  11.253   4.453  25.377
  332SOL    HW1  995  11.286   4.364  25.346
  332SOL    HW2  996  11.325   4.499  25.428
  333SOL     OW  997  10.160   4.677  23.758
  333SOL    HW1  998  10.236   4.614  23.742
  333SOL    HW2  999  10.084   4.654  23.698
  334SOL     OW 1000   7.398   7.203  25.519
  334SOL    HW1 1001   7.477   7.220  25.578
  334SOL    HW2 1002   7.412   7.250  25.432
  335SOL     OW 1003  11.041   5.188  24.405
  335SOL    HW1 1004  11.060   5.104  24.354
  335SOL    HW2 1005  10.945   5.189  24.433
  336SOL     OW 1006   5.536   4.582  28.114
  336SOL    HW1 1007   5.591   4.636  28.177
  336SOL    HW2 1008   5.454   4.549  28.161
  337SOL     OW 1009   6.546   4.642  28.450
  337SOL    HW1 1010   6.627   4.681  28.493
  337SOL    HW2 1011   6.573   4.582  28.375
  339SOL     OW 1015   9.769   4.670  25.480
  339SOL    HW1 1016   9.767   4.733  25.557
  339SOL    HW2 1017   9.676   4.638  25.460
  340SOL     OW 1018   5.041   5.390  28.232
  340SOL    HW1 1019   4.969   5.371  28.299
  340SOL    HW2 1020   4.999   5.417  28.145
  341SOL     OW 1021   5.151   4.938  28.075
  341SOL    HW1 1022   5.157   5.028  28.118
  341SOL    HW2 1023   5.086   4.881  28.126
  342SOL     OW 1024   9.887   5.515  24.028
  342SOL    HW1 1025   9.817   5.548  24.091
  342SOL    HW2 1026   9.963   5.580  24.026
  343SOL     OW 1027   4.536   6.047  27.326
  343SOL    HW1 1028   4.505   5.953  27.342
  343SOL    HW2 1029   4.549   6.062  27.228
  344SOL     OW 1030  10.655   6.841  26.188
  344SOL    HW1 1031  10.699   6.897  26.258
  344SOL    HW2 1032  10.722   6.818  26.117
  345SOL     OW 1033   4.592   6.767  27.413
  345SOL    HW1 1034   4.677   6.773  27.465
  345SOL    HW2 1035   4.612   6.746  27.318
  346SOL     OW 1036  10.197   7.602  27.074
  346SOL    HW1 1037  10.155   7.554  26.997
  346SOL    HW2 1038  10.153   7.691  27.087
  347SOL     OW 1039   5.417   8.185  25.555
  347SOL    HW1 1040   5.513   8.161  25.573
  347SOL    HW2 1041   5.371   8.206  25.642
  348SOL     OW 1042  11.400   4.476  26.256
  348SOL    HW1 1043  11.390   4.501  26.159
  348SOL    HW2 1044  11.317   4.431  26.288
  349SOL     OW 1045  11.422   5.169  26.370
  349SOL    HW1 1046  11.374   5.250  26.405
  349SOL    HW2 1047  11.370   5.128  26.295
  350SOL     OW 1048   9.264   2.996  25.952
  350SOL    HW1 1049   9.165   3.014  25.950
  350SOL    HW2 1050   9.308   3.061  26.014
  351SOL     OW 1051   8.141   7.658  27.263
  351SOL    HW1 1052   8.154   7.588  27.192
  351SOL    HW2 1053   8.191   7.631  27.345
  352SOL     OW 1054   7.005   8.657  27.159
  352SOL    HW1 1055   7.006   8.757  27.165
  352SOL    HW2 1056   7.097   8.622  27.178
  353SOL     OW 1057   9.781   4.311  24.385
  353SOL    HW1 1058   9.858   4.370  24.410
  353SOL    HW2 1059   9.790   4.282  24.290
  354SOL     OW 1060  10.581   4.804  27.225
  354SOL    HW1 1061  10.602   4.898  27.198
  354SOL    HW2 1062  10.653   4.771  27.286
  355SOL     OW 1063   9.004   3.636  26.957
  355SOL    HW1 1064   8.936   3.566  26.936
  355SOL    HW2 1065   8.960   3.726  26.960
  356SOL     OW 1066   7.557   7.202  28.101
  356SOL    HW1 1067   7.501   7.253  28.166
  356SOL    HW2 1068   7.650   7.238  28.102
  357SOL     OW 1069   9.700   5.602  24.198
  357SOL    HW1 1070   9.735   5.596  24.291
  357SOL    HW2 1071   9.618   5.546  24.189
  358SOL     OW 1072  10.643   5.082  27.145
  358SOL    HW1 1073  10.685   5.094  27.055
  358SOL    HW2 1074  10.556   5.132  27.148
  359SOL     OW 1075   9.682   7.585  25.256
  359SOL    HW1 1076   9.613   7.513  25.266
  359SOL    HW2 1077   9.639   7.668  25.221
  360SOL     OW 1078   7.976  10.304  26.462
  360SOL    HW1 1079   8.053  10.272  26.407
  360SOL    HW2 1080   7.997  10.288  26.559
  361SOL     OW 1081   4.460   5.815  27.365
  361SOL    HW1 1082   4.526   5.767  27.423
  361SOL    HW2 1083   4.452   5.767  27.277
  362SOL     OW 1084   5.213   4.851  27.600
  362SOL    HW1 1085   5.157   4.873  27.520
  362SOL    HW2 1086   5.297   4.807  27.571
  363SOL     OW 1087  10.038   3.847  26.496
  363SOL    HW1 1088   9.957   3.788  26.495
  363SOL    HW2 1089  10.034   3.908  26.575
  364SOL     OW 1090   5.079   7.026  27.945
  364SOL    HW1 1091   5.133   6.969  28.007
  364SOL    HW2 1092   4.982   6.999  27.950
  365SOL     OW 1093  11.250   4.816  24.470
  365SOL    HW1 1094  11.223   4.857  24.556
  365SOL    HW2 1095  11.192   4.850  24.396
  366SOL     OW 1096   9.992   6.787  24.312
  366SOL    HW1 1097  10.048   6.867  24.335
  366SOL    HW2 1098  10.001   6.769  24.214
  367SOL     OW 1099   8.641   5.783  25.635
  367SOL    HW1 1100   8.693   5.712  25.588
  367SOL    HW2 1101   8.647   5.869  25.583
  368SOL     OW 1102   9.355   3.397  26.807
  368SOL    HW1 1103   9.301   3.315  26.826
  368SOL    HW2 1104   9.421   3.411  26.881
  369SOL     OW 1105   7.332   9.638  25.527
  369SOL    HW1 1106   7.304   9.579  25.603
  369SOL    HW2 1107   7.409   9.597  25.479
  370SOL     OW 1108   8.443   4.579  25.655
  370SOL    HW1 1109   8.517   4.544  25.598
  370SOL    HW2 1110   8.356   4.567  25.608
  371SOL     OW 1111   5.930   5.866  26.153
  371SOL    HW1 1112   6.002   5.873  26.084
  371SOL    HW2 1113   5.842   5.888  26.111
  372SOL     OW 1114   8.788   3.621  26.552
  372SOL    HW1 1115   8.765   3.715  26.527
  372SOL    HW2 1116   8.800   3.566  26.469
  373SOL     OW 1117  11.343   4.213  25.294
  373SOL    HW1 1118  11.331   4.146  25.367
  373SOL    HW2 1119  11.440   4.220  25.271
    30.177    30.177    30.177
