; ITP file created by ByteFF-joint-25, 2025-07-14 11:37:44.752450

[ atomtypes ]
;name           bonded.type        at.num        mass        charge   ptype           sigma         epsilon
 c0bf                                   6      0.0000       0.00000       A     3.31525e-01     4.13444e-01    ;  uncertainty sigma = 0.000007, epsilon = 0.000871
 cl1bf                                 17      0.0000       0.00000       A     3.46607e-01     1.10412e+00    ;  uncertainty sigma = 0.000014, epsilon = 0.000714
 c2bf                                   6      0.0000       0.00000       A     3.31520e-01     4.13270e-01    ;  uncertainty sigma = 0.000004, epsilon = 0.000822
 c3bf                                   6      0.0000       0.00000       A     3.31534e-01     4.13328e-01    ;  uncertainty sigma = 0.000003, epsilon = 0.000416
 c4bf                                   6      0.0000       0.00000       A     3.31501e-01     4.13318e-01    ;  uncertainty sigma = 0.000014, epsilon = 0.000996
 c5bf                                   6      0.0000       0.00000       A     3.31529e-01     4.13380e-01    ;  uncertainty sigma = 0.000003, epsilon = 0.000530
 c6bf                                   6      0.0000       0.00000       A     3.31509e-01     4.13120e-01    ;  uncertainty sigma = 0.000006, epsilon = 0.000693
 c7bf                                   6      0.0000       0.00000       A     3.31521e-01     4.13193e-01    ;  uncertainty sigma = 0.000006, epsilon = 0.000442
 c8bf                                   6      0.0000       0.00000       A     3.31529e-01     4.13398e-01    ;  uncertainty sigma = 0.000005, epsilon = 0.000440
 c9bf                                   6      0.0000       0.00000       A     3.31530e-01     4.13079e-01    ;  uncertainty sigma = 0.000003, epsilon = 0.000708
 c10bf                                  6      0.0000       0.00000       A     3.31521e-01     4.13394e-01    ;  uncertainty sigma = 0.000005, epsilon = 0.000682
 c11bf                                  6      0.0000       0.00000       A     3.31525e-01     4.12401e-01    ;  uncertainty sigma = 0.000009, epsilon = 0.001031
 n12bf                                  7      0.0000       0.00000       A     3.27053e-01     4.89454e-01    ;  uncertainty sigma = 0.000018, epsilon = 0.001791
 c13bf                                  6      0.0000       0.00000       A     3.39788e-01     4.50817e-01    ;  uncertainty sigma = 0.000020, epsilon = 0.000916
 o14bf                                  8      0.0000       0.00000       A     3.04791e-01     6.12345e-01    ;  uncertainty sigma = 0.000013, epsilon = 0.001076
 c15bf                                  6      0.0000       0.00000       A     3.39779e-01     4.50691e-01    ;  uncertainty sigma = 0.000021, epsilon = 0.001068
 c16bf                                  6      0.0000       0.00000       A     3.39785e-01     4.51177e-01    ;  uncertainty sigma = 0.000013, epsilon = 0.000568
 c17bf                                  6      0.0000       0.00000       A     3.39788e-01     4.50813e-01    ;  uncertainty sigma = 0.000005, epsilon = 0.001015
 c18bf                                  6      0.0000       0.00000       A     3.39784e-01     4.51089e-01    ;  uncertainty sigma = 0.000005, epsilon = 0.000646
 c19bf                                  6      0.0000       0.00000       A     3.39763e-01     4.50994e-01    ;  uncertainty sigma = 0.000009, epsilon = 0.000666
 n20bf                                  7      0.0000       0.00000       A     3.27037e-01     4.89849e-01    ;  uncertainty sigma = 0.000029, epsilon = 0.003194
 c21bf                                  6      0.0000       0.00000       A     3.31529e-01     4.12690e-01    ;  uncertainty sigma = 0.000018, epsilon = 0.001128
 c22bf                                  6      0.0000       0.00000       A     3.31525e-01     4.13652e-01    ;  uncertainty sigma = 0.000013, epsilon = 0.001225
 o23bf                                  8      0.0000       0.00000       A     3.04890e-01     6.12219e-01    ;  uncertainty sigma = 0.000024, epsilon = 0.000874
 n24bf                                  7      0.0000       0.00000       A     3.38354e-01     3.93161e-01    ;  uncertainty sigma = 0.000020, epsilon = 0.001245
 s25bf                                 16      0.0000       0.00000       A     3.53288e-01     1.18179e+00    ;  uncertainty sigma = 0.000032, epsilon = 0.002346
 h26bf                                  1      0.0000       0.00000       A     2.62555e-01     6.69648e-02    ;  uncertainty sigma = 0.000013, epsilon = 0.000701
 h27bf                                  1      0.0000       0.00000       A     2.62558e-01     6.70667e-02    ;  uncertainty sigma = 0.000011, epsilon = 0.000326
 h28bf                                  1      0.0000       0.00000       A     2.62561e-01     6.70028e-02    ;  uncertainty sigma = 0.000012, epsilon = 0.000382
 h29bf                                  1      0.0000       0.00000       A     2.62554e-01     6.70089e-02    ;  uncertainty sigma = 0.000010, epsilon = 0.000673
 h30bf                                  1      0.0000       0.00000       A     2.62574e-01     6.70490e-02    ;  uncertainty sigma = 0.000007, epsilon = 0.000455
 h31bf                                  1      0.0000       0.00000       A     1.10650e-01     4.15088e-02    ;  uncertainty sigma = 0.000077, epsilon = 0.000874
 h32bf                                  1      0.0000       0.00000       A     2.42165e-01     8.67649e-02    ;  uncertainty sigma = 0.000033, epsilon = 0.001355
 h33bf                                  1      0.0000       0.00000       A     1.10666e-01     4.15404e-02    ;  uncertainty sigma = 0.000113, epsilon = 0.000907
 c34bf                                  6      0.0000       0.00000       A     3.31531e-01     4.13284e-01    ;  uncertainty sigma = 0.000022, epsilon = 0.000692
 c35bf                                  6      0.0000       0.00000       A     3.31510e-01     4.13232e-01    ;  uncertainty sigma = 0.000021, epsilon = 0.000971
 c36bf                                  6      0.0000       0.00000       A     3.39772e-01     4.51291e-01    ;  uncertainty sigma = 0.000007, epsilon = 0.001369
 n37bf                                  7      0.0000       0.00000       A     3.36491e-01     3.58344e-01    ;  uncertainty sigma = 0.000019, epsilon = 0.001758
 c38bf                                  6      0.0000       0.00000       A     3.39770e-01     4.51225e-01    ;  uncertainty sigma = 0.000009, epsilon = 0.000671
 c39bf                                  6      0.0000       0.00000       A     3.39762e-01     4.51164e-01    ;  uncertainty sigma = 0.000008, epsilon = 0.001424
 c40bf                                  6      0.0000       0.00000       A     3.39770e-01     4.51318e-01    ;  uncertainty sigma = 0.000003, epsilon = 0.000740
 h41bf                                  1      0.0000       0.00000       A     2.42250e-01     8.62902e-02    ;  uncertainty sigma = 0.000037, epsilon = 0.000964
 h42bf                                  1      0.0000       0.00000       A     2.42250e-01     8.62902e-02    ;  uncertainty sigma = 0.000037, epsilon = 0.000964
 h43bf                                  1      0.0000       0.00000       A     2.42218e-01     8.69005e-02    ;  uncertainty sigma = 0.000021, epsilon = 0.000739
 h44bf                                  1      0.0000       0.00000       A     2.42218e-01     8.69005e-02    ;  uncertainty sigma = 0.000021, epsilon = 0.000739
 h45bf                                  1      0.0000       0.00000       A     2.60015e-01     8.68230e-02    ;  uncertainty sigma = 0.000020, epsilon = 0.000739
 h46bf                                  1      0.0000       0.00000       A     2.60015e-01     8.68230e-02    ;  uncertainty sigma = 0.000020, epsilon = 0.000739
 h47bf                                  1      0.0000       0.00000       A     2.42198e-01     8.68693e-02    ;  uncertainty sigma = 0.000014, epsilon = 0.000543
 h48bf                                  1      0.0000       0.00000       A     2.42198e-01     8.68693e-02    ;  uncertainty sigma = 0.000014, epsilon = 0.000543
 h49bf                                  1      0.0000       0.00000       A     2.42198e-01     8.68693e-02    ;  uncertainty sigma = 0.000014, epsilon = 0.000543
 c50bf                                  6      0.0000       0.00000       A     3.31545e-01     4.13066e-01    ;  uncertainty sigma = 0.000011, epsilon = 0.001034
 o51bf                                  8      0.0000       0.00000       A     3.04819e-01     6.12467e-01    ;  uncertainty sigma = 0.000013, epsilon = 0.000996
 n52bf                                  7      0.0000       0.00000       A     3.18136e-01     6.84509e-01    ;  uncertainty sigma = 0.000019, epsilon = 0.001339
 c53bf                                  6      0.0000       0.00000       A     3.39777e-01     4.50876e-01    ;  uncertainty sigma = 0.000006, epsilon = 0.000504
 c54bf                                  6      0.0000       0.00000       A     3.39777e-01     4.50876e-01    ;  uncertainty sigma = 0.000006, epsilon = 0.000504
 h55bf                                  1      0.0000       0.00000       A     2.60016e-01     8.65219e-02    ;  uncertainty sigma = 0.000021, epsilon = 0.000613
 h56bf                                  1      0.0000       0.00000       A     2.60016e-01     8.65219e-02    ;  uncertainty sigma = 0.000021, epsilon = 0.000613
 h57bf                                  1      0.0000       0.00000       A     2.60030e-01     8.70270e-02    ;  uncertainty sigma = 0.000011, epsilon = 0.000538
 h58bf                                  1      0.0000       0.00000       A     2.60020e-01     8.66352e-02    ;  uncertainty sigma = 0.000016, epsilon = 0.000625
 h59bf                                  1      0.0000       0.00000       A     2.60020e-01     8.66352e-02    ;  uncertainty sigma = 0.000016, epsilon = 0.000625
 h60bf                                  1      0.0000       0.00000       A     2.60024e-01     8.67210e-02    ;  uncertainty sigma = 0.000008, epsilon = 0.000629
 h61bf                                  1      0.0000       0.00000       A     2.60024e-01     8.67210e-02    ;  uncertainty sigma = 0.000008, epsilon = 0.000629
 h62bf                                  1      0.0000       0.00000       A     2.42196e-01     8.67627e-02    ;  uncertainty sigma = 0.000011, epsilon = 0.000510
 h63bf                                  1      0.0000       0.00000       A     2.42196e-01     8.67627e-02    ;  uncertainty sigma = 0.000011, epsilon = 0.000510
 h64bf                                  1      0.0000       0.00000       A     2.42196e-01     8.67627e-02    ;  uncertainty sigma = 0.000011, epsilon = 0.000510
 h65bf                                  1      0.0000       0.00000       A     2.42196e-01     8.67627e-02    ;  uncertainty sigma = 0.000011, epsilon = 0.000510
 h66bf                                  1      0.0000       0.00000       A     2.42196e-01     8.67627e-02    ;  uncertainty sigma = 0.000011, epsilon = 0.000510
 h67bf                                  1      0.0000       0.00000       A     2.42196e-01     8.67627e-02    ;  uncertainty sigma = 0.000011, epsilon = 0.000510
 h68bf                                  1      0.0000       0.00000       A     2.42143e-01     8.68215e-02    ;  uncertainty sigma = 0.000035, epsilon = 0.001353
 h69bf                                  1      0.0000       0.00000       A     2.62553e-01     6.71619e-02    ;  uncertainty sigma = 0.000006, epsilon = 0.000681

[ moleculetype ]
;name             nrexcl
 MOL                   3

[ atoms ]
;       nr            type      resi   res      atom      cgnr      charge          mass ; qtot
         1            c0bf         1   UNL        c0         1    -0.01429       12.0110 ; qtot   -0.014
         2           cl1bf         1   UNL       cl1         2    -0.11931       35.4530 ; qtot   -0.134
         3            c2bf         1   UNL        c2         3    -0.04911       12.0110 ; qtot   -0.183
         4            c3bf         1   UNL        c3         4    -0.06247       12.0110 ; qtot   -0.245
         5            c4bf         1   UNL        c4         5    -0.14961       12.0110 ; qtot   -0.395
         6            c5bf         1   UNL        c5         6    -0.09206       12.0110 ; qtot   -0.487
         7            c6bf         1   UNL        c6         7    -0.12037       12.0110 ; qtot   -0.607
         8            c7bf         1   UNL        c7         8    -0.10004       12.0110 ; qtot   -0.707
         9            c8bf         1   UNL        c8         9    -0.11856       12.0110 ; qtot   -0.826
        10            c9bf         1   UNL        c9        10     0.03362       12.0110 ; qtot   -0.792
        11           c10bf         1   UNL       c10        11    -0.10535       12.0110 ; qtot   -0.898
        12           c11bf         1   UNL       c11        12     0.67415       12.0110 ; qtot   -0.223
        13           n12bf         1   UNL       n12        13    -0.56482       14.0070 ; qtot   -0.788
        14           c13bf         1   UNL       c13        14     0.09750       12.0110 ; qtot   -0.691
        15           o14bf         1   UNL       o14        15    -0.59988       15.9990 ; qtot   -1.291
        16           c15bf         1   UNL       c15        16     0.10482       12.0110 ; qtot   -1.186
        17           c16bf         1   UNL       c16        17    -0.07517       12.0110 ; qtot   -1.261
        18           c17bf         1   UNL       c17        18    -0.13250       12.0110 ; qtot   -1.393
        19           c18bf         1   UNL       c18        19    -0.06578       12.0110 ; qtot   -1.459
        20           c19bf         1   UNL       c19        20    -0.08746       12.0110 ; qtot   -1.547
        21           n20bf         1   UNL       n20        21    -0.55641       14.0070 ; qtot   -2.103
        22           c21bf         1   UNL       c21        22     0.59414       12.0110 ; qtot   -1.509
        23           c22bf         1   UNL       c22        23     0.37509       12.0110 ; qtot   -1.134
        24           o23bf         1   UNL       o23        24    -0.57698       15.9990 ; qtot   -1.711
        25           n24bf         1   UNL       n24        25    -0.60853       14.0070 ; qtot   -2.319
        26           s25bf         1   UNL       s25        26    -0.11954       32.0670 ; qtot   -2.439
        27           h26bf         1   UNL       h26        27     0.14597        1.0080 ; qtot   -2.293
        28           h27bf         1   UNL       h27        28     0.13964        1.0080 ; qtot   -2.153
        29           h28bf         1   UNL       h28        29     0.13762        1.0080 ; qtot   -2.016
        30           h29bf         1   UNL       h29        30     0.15092        1.0080 ; qtot   -1.865
        31           h30bf         1   UNL       h30        31     0.14985        1.0080 ; qtot   -1.715
        32           h31bf         1   UNL       h31        32     0.31808        1.0080 ; qtot   -1.397
        33           h32bf         1   UNL       h32        33     0.07711        1.0080 ; qtot   -1.320
        34           h33bf         1   UNL       h33        34     0.33735        1.0080 ; qtot   -0.982
        35           c34bf         1   UNL       c34        35     0.34886       12.0110 ; qtot   -0.634
        36           c35bf         1   UNL       c35        36    -0.15290       12.0110 ; qtot   -0.786
        37           c36bf         1   UNL       c36        37     0.24342       12.0110 ; qtot   -0.543
        38           n37bf         1   UNL       n37        38    -0.71265       14.0070 ; qtot   -1.256
        39           c38bf         1   UNL       c38        39     0.15896       12.0110 ; qtot   -1.097
        40           c39bf         1   UNL       c39        40    -0.11292       12.0110 ; qtot   -1.210
        41           c40bf         1   UNL       c40        41     0.14692       12.0110 ; qtot   -1.063
        42           h41bf         1   UNL       h41        42     0.05218        1.0080 ; qtot   -1.011
        43           h42bf         1   UNL       h42        43     0.05218        1.0080 ; qtot   -0.958
        44           h43bf         1   UNL       h43        44     0.04542        1.0080 ; qtot   -0.913
        45           h44bf         1   UNL       h44        45     0.04542        1.0080 ; qtot   -0.867
        46           h45bf         1   UNL       h45        46     0.06419        1.0080 ; qtot   -0.803
        47           h46bf         1   UNL       h46        47     0.06419        1.0080 ; qtot   -0.739
        48           h47bf         1   UNL       h47        48     0.03530        1.0080 ; qtot   -0.704
        49           h48bf         1   UNL       h48        49     0.03530        1.0080 ; qtot   -0.669
        50           h49bf         1   UNL       h49        50     0.03530        1.0080 ; qtot   -0.633
        51           c50bf         1   UNL       c50        51     0.67193       12.0110 ; qtot    0.039
        52           o51bf         1   UNL       o51        52    -0.60797       15.9990 ; qtot   -0.569
        53           n52bf         1   UNL       n52        53    -0.49029       14.0070 ; qtot   -1.060
        54           c53bf         1   UNL       c53        54     0.08466       12.0110 ; qtot   -0.975
        55           c54bf         1   UNL       c54        55     0.08466       12.0110 ; qtot   -0.890
        56           h55bf         1   UNL       h55        56     0.06150        1.0080 ; qtot   -0.829
        57           h56bf         1   UNL       h56        57     0.06150        1.0080 ; qtot   -0.767
        58           h57bf         1   UNL       h57        58     0.06422        1.0080 ; qtot   -0.703
        59           h58bf         1   UNL       h58        59     0.05208        1.0080 ; qtot   -0.651
        60           h59bf         1   UNL       h59        60     0.05208        1.0080 ; qtot   -0.599
        61           h60bf         1   UNL       h60        61     0.05522        1.0080 ; qtot   -0.544
        62           h61bf         1   UNL       h61        62     0.05522        1.0080 ; qtot   -0.488
        63           h62bf         1   UNL       h62        63     0.04383        1.0080 ; qtot   -0.445
        64           h63bf         1   UNL       h63        64     0.04383        1.0080 ; qtot   -0.401
        65           h64bf         1   UNL       h64        65     0.04383        1.0080 ; qtot   -0.357
        66           h65bf         1   UNL       h65        66     0.04383        1.0080 ; qtot   -0.313
        67           h66bf         1   UNL       h66        67     0.04383        1.0080 ; qtot   -0.269
        68           h67bf         1   UNL       h67        68     0.04383        1.0080 ; qtot   -0.225
        69           h68bf         1   UNL       h68        69     0.07881        1.0080 ; qtot   -0.147
        70           h69bf         1   UNL       h69        70     0.14661        1.0080 ; qtot   -0.000

[ bonds ]
;       ai        aj funct               r               k
         1         3     1        0.143108   334801.463379    ;  uncertainty r = 0.000010, k = 3.638366
         1         7     1        0.142138   353665.138721    ;  uncertainty r = 0.000050, k = 3.412118
         1        11     1        0.142011   347062.672314    ;  uncertainty r = 0.000023, k = 6.267826
         2        10     1        0.175840   196381.801172    ;  uncertainty r = 0.000026, k = 3.886562
         3         4     1        0.141764   359334.019482    ;  uncertainty r = 0.000037, k = 6.855366
         3         8     1        0.142156   350641.544971    ;  uncertainty r = 0.000035, k = 5.280126
         4         5     1        0.138278   361219.219971    ;  uncertainty r = 0.000059, k = 3.998544
         4        27     1        0.108783   333963.233301    ;  uncertainty r = 0.000041, k = 1.343203
         5         6     1        0.142222   334108.564990    ;  uncertainty r = 0.000052, k = 6.170650
         5        12     1        0.149989   234351.856543    ;  uncertainty r = 0.000088, k = 1.256856
         6         7     1        0.137635   363388.035596    ;  uncertainty r = 0.000056, k = 2.863708
         6        70     1        0.108734   333548.485107    ;  uncertainty r = 0.000009, k = 2.115717
         7        28     1        0.108826   334332.959570    ;  uncertainty r = 0.000015, k = 1.294182
         8         9     1        0.137790   373060.879736    ;  uncertainty r = 0.000033, k = 2.623010
         8        29     1        0.108784   334881.752051    ;  uncertainty r = 0.000018, k = 1.428519
         9        10     1        0.141699   346359.610156    ;  uncertainty r = 0.000100, k = 3.942866
         9        30     1        0.108699   335956.660059    ;  uncertainty r = 0.000010, k = 1.028610
        10        11     1        0.137647   354116.226221    ;  uncertainty r = 0.000045, k = 3.351264
        11        31     1        0.108732   335995.553076    ;  uncertainty r = 0.000006, k = 1.379877
        12        13     1        0.137084   278000.292480    ;  uncertainty r = 0.000074, k = 13.942752
        12        15     1        0.123748   762102.269629    ;  uncertainty r = 0.000072, k = 7.892409
        13        14     1        0.145970   247141.887939    ;  uncertainty r = 0.000067, k = 12.364114
        13        32     1        0.101372   414098.325000    ;  uncertainty r = 0.000076, k = 1.978018
        14        16     1        0.154149   193233.254346    ;  uncertainty r = 0.000225, k = 7.241530
        14        20     1        0.153518   200229.554053    ;  uncertainty r = 0.000087, k = 6.980344
        14        33     1        0.109367   306139.199170    ;  uncertainty r = 0.000050, k = 3.162886
        16        17     1        0.153461   198493.451978    ;  uncertainty r = 0.000128, k = 5.281574
        16        21     1        0.145732   238691.326465    ;  uncertainty r = 0.000068, k = 15.691022
        16        69     1        0.109360   306494.828955    ;  uncertainty r = 0.000054, k = 3.368977
        17        18     1        0.153721   199006.850024    ;  uncertainty r = 0.000168, k = 6.848027
        17        56     1        0.109526   310433.851465    ;  uncertainty r = 0.000043, k = 0.875064
        17        57     1        0.109526   310433.851465    ;  uncertainty r = 0.000043, k = 0.875064
        18        19     1        0.153975   202217.337109    ;  uncertainty r = 0.000087, k = 2.573046
        18        51     1        0.153156   206143.680444    ;  uncertainty r = 0.000070, k = 12.443492
        18        58     1        0.109633   309151.735352    ;  uncertainty r = 0.000051, k = 6.503762
        19        20     1        0.153317   207892.474463    ;  uncertainty r = 0.000061, k = 5.382321
        19        59     1        0.109602   308125.501074    ;  uncertainty r = 0.000021, k = 1.819146
        19        60     1        0.109602   308125.501074    ;  uncertainty r = 0.000021, k = 1.819146
        20        61     1        0.109620   309930.898096    ;  uncertainty r = 0.000025, k = 1.029525
        20        62     1        0.109620   309930.898096    ;  uncertainty r = 0.000025, k = 1.029525
        21        22     1        0.136254   291452.475586    ;  uncertainty r = 0.000129, k = 17.867731
        21        34     1        0.101616   410581.507520    ;  uncertainty r = 0.000093, k = 3.750123
        22        23     1        0.147883   259563.418848    ;  uncertainty r = 0.000125, k = 27.680344
        22        24     1        0.123538   703630.001367    ;  uncertainty r = 0.000115, k = 12.098945
        23        25     1        0.130310   434161.095312    ;  uncertainty r = 0.000085, k = 15.053236
        23        26     1        0.175563   155788.944214    ;  uncertainty r = 0.000188, k = 10.470577
        25        35     1        0.137602   299978.345996    ;  uncertainty r = 0.000211, k = 8.739575
        26        36     1        0.173396   184345.625244    ;  uncertainty r = 0.000110, k = 8.530767
        35        36     1        0.137286   397473.794482    ;  uncertainty r = 0.000034, k = 9.608965
        35        40     1        0.149948   244144.622949    ;  uncertainty r = 0.000108, k = 7.193396
        36        37     1        0.150719   237383.826465    ;  uncertainty r = 0.000089, k = 11.691948
        37        38     1        0.146397   258698.068359    ;  uncertainty r = 0.000045, k = 12.802743
        37        42     1        0.110180   303656.992139    ;  uncertainty r = 0.000048, k = 3.959665
        37        43     1        0.110180   303656.992139    ;  uncertainty r = 0.000048, k = 3.959665
        38        39     1        0.146774   246527.975830    ;  uncertainty r = 0.000088, k = 8.191406
        38        41     1        0.145874   240551.449512    ;  uncertainty r = 0.000055, k = 4.989744
        39        40     1        0.153862   211171.503149    ;  uncertainty r = 0.000061, k = 10.297044
        39        44     1        0.109933   305388.127246    ;  uncertainty r = 0.000023, k = 3.768152
        39        45     1        0.109933   305388.127246    ;  uncertainty r = 0.000023, k = 3.768152
        40        46     1        0.109729   310887.467139    ;  uncertainty r = 0.000009, k = 2.383701
        40        47     1        0.109729   310887.467139    ;  uncertainty r = 0.000009, k = 2.383701
        41        48     1        0.109858   306972.960254    ;  uncertainty r = 0.000009, k = 1.032628
        41        49     1        0.109858   306972.960254    ;  uncertainty r = 0.000009, k = 1.032628
        41        50     1        0.109858   306972.960254    ;  uncertainty r = 0.000009, k = 1.032628
        51        52     1        0.123614   736987.492969    ;  uncertainty r = 0.000035, k = 11.451192
        51        53     1        0.137582   365085.512793    ;  uncertainty r = 0.000056, k = 20.353976
        53        54     1        0.145904   250764.582275    ;  uncertainty r = 0.000013, k = 6.211512
        53        55     1        0.145904   250764.582275    ;  uncertainty r = 0.000013, k = 6.211512
        54        63     1        0.109437   311080.731982    ;  uncertainty r = 0.000014, k = 1.257584
        54        64     1        0.109437   311080.731982    ;  uncertainty r = 0.000014, k = 1.257584
        54        65     1        0.109437   311080.731982    ;  uncertainty r = 0.000014, k = 1.257584
        55        66     1        0.109437   311080.731982    ;  uncertainty r = 0.000014, k = 1.257584
        55        67     1        0.109437   311080.731982    ;  uncertainty r = 0.000014, k = 1.257590
        55        68     1        0.109437   311080.680908    ;  uncertainty r = 0.000014, k = 1.257584

[ angles ]
;       ai        aj        ak funct           theta             cth
         1         3         4     1      118.964256      447.268872    ;  uncertainty theta = 0.005526, k = 0.086377
         1         3         8     1      117.989906      461.729069    ;  uncertainty theta = 0.003082, k = 0.097302
         1         7         6     1      120.994827      549.029146    ;  uncertainty theta = 0.003074, k = 0.114393
         1         7        28     1      119.807861      279.249504    ;  uncertainty theta = 0.001637, k = 0.100177
         1        11        10     1      119.236794      500.513713    ;  uncertainty theta = 0.001870, k = 0.037157
         1        11        31     1      120.672318      270.718705    ;  uncertainty theta = 0.001548, k = 0.034086
         2        10         9     1      119.780106      451.954389    ;  uncertainty theta = 0.000834, k = 0.081181
         2        10        11     1      120.284019      444.336606    ;  uncertainty theta = 0.001516, k = 0.038513
         3         1         7     1      117.700356      451.616437    ;  uncertainty theta = 0.002756, k = 0.061577
         3         1        11     1      118.709801      451.961284    ;  uncertainty theta = 0.004016, k = 0.085455
         3         4         5     1      121.780533      545.210262    ;  uncertainty theta = 0.003968, k = 0.150784
         3         4        27     1      119.699173      277.908487    ;  uncertainty theta = 0.002524, k = 0.102047
         3         8         9     1      121.016586      541.270270    ;  uncertainty theta = 0.002176, k = 0.116745
         3         8        29     1      119.648438      276.532771    ;  uncertainty theta = 0.003012, k = 0.111301
         4         3         8     1      123.052475      463.695107    ;  uncertainty theta = 0.004390, k = 0.169246
         4         5         6     1      122.291061      457.174972    ;  uncertainty theta = 0.002681, k = 0.087062
         4         5        12     1      118.636475      343.918531    ;  uncertainty theta = 0.001804, k = 0.240655
         5         4        27     1      119.345200      268.701816    ;  uncertainty theta = 0.002705, k = 0.097942
         5         6         7     1      122.034706      540.802940    ;  uncertainty theta = 0.002103, k = 0.028753
         5         6        70     1      118.822227      267.970529    ;  uncertainty theta = 0.004228, k = 0.062942
         5        12        13     1      115.470764      447.748363    ;  uncertainty theta = 0.002028, k = 0.078295
         5        12        15     1      124.165810      532.675564    ;  uncertainty theta = 0.003543, k = 0.046771
         6         5        12     1      119.107254      340.679021    ;  uncertainty theta = 0.003464, k = 0.175713
         6         7        28     1      120.741432      281.695704    ;  uncertainty theta = 0.001507, k = 0.046245
         7         1        11     1      123.215858      465.353551    ;  uncertainty theta = 0.003833, k = 0.091870
         7         6        70     1      119.418472      289.909077    ;  uncertainty theta = 0.002199, k = 0.046760
         8         9        10     1      119.157753      514.292452    ;  uncertainty theta = 0.001257, k = 0.048379
         8         9        30     1      120.474220      285.334135    ;  uncertainty theta = 0.000763, k = 0.073914
         9         8        29     1      120.070030      282.619636    ;  uncertainty theta = 0.002336, k = 0.054742
         9        10        11     1      121.948624      395.244322    ;  uncertainty theta = 0.002104, k = 0.092790
        10         9        30     1      120.740501      286.173221    ;  uncertainty theta = 0.001331, k = 0.025726
        10        11        31     1      121.218826      288.136929    ;  uncertainty theta = 0.001148, k = 0.091115
        12        13        14     1      116.873146      441.252712    ;  uncertainty theta = 0.003778, k = 0.093486
        12        13        32     1      115.538063      333.937990    ;  uncertainty theta = 0.001505, k = 0.076218
        13        12        15     1      123.658836      783.155599    ;  uncertainty theta = 0.002998, k = 0.116029
        13        14        16     1      109.371033      582.979328    ;  uncertainty theta = 0.004481, k = 0.184314
        13        14        20     1      111.070206      635.612906    ;  uncertainty theta = 0.002541, k = 0.057667
        13        14        33     1      105.384659      443.882109    ;  uncertainty theta = 0.003534, k = 0.164501
        14        13        32     1      112.761353      330.366082    ;  uncertainty theta = 0.003114, k = 0.150808
        14        16        17     1      109.668968      543.194746    ;  uncertainty theta = 0.003153, k = 0.181087
        14        16        21     1      109.145096      584.287786    ;  uncertainty theta = 0.004574, k = 0.173128
        14        16        69     1      107.732323      383.900546    ;  uncertainty theta = 0.001730, k = 0.083551
        14        20        19     1      109.788712      550.523577    ;  uncertainty theta = 0.003607, k = 0.115721
        14        20        61     1      107.495544      382.890234    ;  uncertainty theta = 0.000860, k = 0.033541
        14        20        62     1      107.495544      382.890234    ;  uncertainty theta = 0.000860, k = 0.033541
        16        14        20     1      109.377792      552.255057    ;  uncertainty theta = 0.000803, k = 0.239272
        16        14        33     1      107.458580      382.125079    ;  uncertainty theta = 0.002662, k = 0.086925
        16        17        18     1      110.158470      537.237002    ;  uncertainty theta = 0.003364, k = 0.118913
        16        17        56     1      107.462036      385.087415    ;  uncertainty theta = 0.000668, k = 0.059043
        16        17        57     1      107.462036      385.087415    ;  uncertainty theta = 0.000668, k = 0.059043
        16        21        22     1      116.259842      438.599854    ;  uncertainty theta = 0.006695, k = 0.183209
        16        21        34     1      112.698265      315.764027    ;  uncertainty theta = 0.001508, k = 0.296876
        17        16        21     1      110.222816      630.153200    ;  uncertainty theta = 0.002135, k = 0.087453
        17        16        69     1      108.603882      408.571724    ;  uncertainty theta = 0.001775, k = 0.034676
        17        18        19     1      109.900391      583.567575    ;  uncertainty theta = 0.002330, k = 0.083135
        17        18        51     1      108.569168      489.144113    ;  uncertainty theta = 0.003757, k = 0.073146
        17        18        58     1      107.332260      401.082169    ;  uncertainty theta = 0.002516, k = 0.077903
        18        17        56     1      108.676857      396.198101    ;  uncertainty theta = 0.000795, k = 0.026396
        18        17        57     1      108.676857      396.198101    ;  uncertainty theta = 0.000795, k = 0.026396
        18        19        20     1      109.789757      580.826741    ;  uncertainty theta = 0.001891, k = 0.142184
        18        19        59     1      108.292625      386.614311    ;  uncertainty theta = 0.000735, k = 0.019139
        18        19        60     1      108.292625      386.614311    ;  uncertainty theta = 0.000735, k = 0.019139
        18        51        52     1      123.648819      547.647652    ;  uncertainty theta = 0.003749, k = 0.250532
        18        51        53     1      114.135170      399.306701    ;  uncertainty theta = 0.002339, k = 0.216014
        19        18        51     1      108.943726      496.415422    ;  uncertainty theta = 0.001979, k = 0.055108
        19        18        58     1      107.694107      403.879791    ;  uncertainty theta = 0.001685, k = 0.082263
        19        20        61     1      108.762428      400.566224    ;  uncertainty theta = 0.001510, k = 0.036687
        19        20        62     1      108.762428      400.566224    ;  uncertainty theta = 0.001510, k = 0.036687
        20        14        33     1      108.904579      411.004134    ;  uncertainty theta = 0.001658, k = 0.070802
        20        19        59     1      108.482193      402.788750    ;  uncertainty theta = 0.000884, k = 0.036541
        20        19        60     1      108.482193      402.788750    ;  uncertainty theta = 0.000884, k = 0.036541
        21        16        69     1      105.245773      446.491842    ;  uncertainty theta = 0.004278, k = 0.178016
        21        22        23     1      113.070839      435.784547    ;  uncertainty theta = 0.006920, k = 0.140238
        21        22        24     1      124.950012      804.911939    ;  uncertainty theta = 0.003994, k = 0.055585
        22        21        34     1      116.250000      347.593576    ;  uncertainty theta = 0.004441, k = 0.081627
        22        23        25     1      122.197128      370.860213    ;  uncertainty theta = 0.005964, k = 0.255742
        22        23        26     1      118.123451      287.405674    ;  uncertainty theta = 0.005808, k = 0.204925
        23        22        24     1      120.002197      453.227350    ;  uncertainty theta = 0.007890, k = 0.121396
        23        25        35     1      111.845421      637.059456    ;  uncertainty theta = 0.004719, k = 0.108197
        23        26        36     1       89.170425     1132.634133    ;  uncertainty theta = 0.004755, k = 0.314956
        25        23        26     1      116.136452      646.965173    ;  uncertainty theta = 0.002239, k = 0.246117
        25        35        36     1      115.716957      690.992937    ;  uncertainty theta = 0.003156, k = 0.158093
        25        35        40     1      124.040390      433.932787    ;  uncertainty theta = 0.004363, k = 0.201750
        26        36        35     1      109.672325      507.238336    ;  uncertainty theta = 0.002750, k = 0.124654
        26        36        37     1      124.458923      318.004972    ;  uncertainty theta = 0.003631, k = 0.249957
        35        36        37     1      122.449425      322.713122    ;  uncertainty theta = 0.004108, k = 0.373686
        35        40        39     1      106.939438      596.797522    ;  uncertainty theta = 0.003584, k = 0.044131
        35        40        46     1      108.548073      392.911220    ;  uncertainty theta = 0.001454, k = 0.086868
        35        40        47     1      108.548073      392.911220    ;  uncertainty theta = 0.001454, k = 0.086868
        36        35        40     1      120.498146      325.489963    ;  uncertainty theta = 0.004995, k = 0.174544
        36        37        38     1      109.701111      686.046080    ;  uncertainty theta = 0.001850, k = 0.201796
        36        37        42     1      108.925659      409.463193    ;  uncertainty theta = 0.001395, k = 0.154098
        36        37        43     1      108.925659      409.463193    ;  uncertainty theta = 0.001395, k = 0.154098
        37        38        39     1      108.084244      491.834927    ;  uncertainty theta = 0.003315, k = 0.091086
        37        38        41     1      107.580322      510.743273    ;  uncertainty theta = 0.002764, k = 0.057722
        38        37        42     1      109.358154      448.409487    ;  uncertainty theta = 0.001850, k = 0.074310
        38        37        43     1      109.358154      448.409487    ;  uncertainty theta = 0.001850, k = 0.074310
        38        39        40     1      112.487526      700.788206    ;  uncertainty theta = 0.002677, k = 0.118016
        38        39        44     1      108.920166      453.721493    ;  uncertainty theta = 0.001526, k = 0.064884
        38        39        45     1      108.920166      453.721493    ;  uncertainty theta = 0.001526, k = 0.064884
        38        41        48     1      110.438461      450.024231    ;  uncertainty theta = 0.001821, k = 0.029766
        38        41        49     1      110.438461      450.024231    ;  uncertainty theta = 0.001821, k = 0.029766
        38        41        50     1      110.438461      450.024231    ;  uncertainty theta = 0.001821, k = 0.029766
        39        38        41     1      108.245483      523.945384    ;  uncertainty theta = 0.002945, k = 0.105030
        39        40        46     1      108.704140      394.566535    ;  uncertainty theta = 0.001154, k = 0.056791
        39        40        47     1      108.704140      394.566535    ;  uncertainty theta = 0.001154, k = 0.056791
        40        39        44     1      108.660522      413.983038    ;  uncertainty theta = 0.001451, k = 0.079858
        40        39        45     1      108.660522      413.983038    ;  uncertainty theta = 0.001451, k = 0.079858
        42        37        43     1      104.710770      316.430897    ;  uncertainty theta = 0.002647, k = 0.058044
        44        39        45     1      105.686386      320.062785    ;  uncertainty theta = 0.001993, k = 0.069558
        46        40        47     1      105.018166      307.701164    ;  uncertainty theta = 0.001306, k = 0.028790
        48        41        49     1      106.707680      321.292396    ;  uncertainty theta = 0.002211, k = 0.028957
        48        41        50     1      106.707680      321.292396    ;  uncertainty theta = 0.002211, k = 0.028957
        49        41        50     1      106.707680      321.292396    ;  uncertainty theta = 0.002211, k = 0.028957
        51        18        58     1      106.313622      362.200292    ;  uncertainty theta = 0.002423, k = 0.146630
        51        53        54     1      116.622971      385.561065    ;  uncertainty theta = 0.001770, k = 0.124804
        51        53        55     1      116.622971      385.561065    ;  uncertainty theta = 0.001770, k = 0.124804
        52        51        53     1      123.396584      724.695474    ;  uncertainty theta = 0.001503, k = 0.174408
        53        54        63     1      109.352982      479.364486    ;  uncertainty theta = 0.001224, k = 0.042687
        53        54        64     1      109.352982      479.364486    ;  uncertainty theta = 0.001224, k = 0.042687
        53        54        65     1      109.352982      479.364486    ;  uncertainty theta = 0.001224, k = 0.042687
        53        55        66     1      109.352982      479.364486    ;  uncertainty theta = 0.001224, k = 0.042687
        53        55        67     1      109.352982      479.364486    ;  uncertainty theta = 0.001224, k = 0.042687
        53        55        68     1      109.352982      479.364486    ;  uncertainty theta = 0.001224, k = 0.042687
        54        53        55     1      118.428368      428.731644    ;  uncertainty theta = 0.003391, k = 0.223109
        56        17        57     1      105.326035      326.596294    ;  uncertainty theta = 0.002223, k = 0.051835
        59        19        60     1      104.655197      318.642921    ;  uncertainty theta = 0.002537, k = 0.034949
        61        20        62     1      105.087135      316.700154    ;  uncertainty theta = 0.002326, k = 0.045638
        63        54        64     1      106.824196      329.099123    ;  uncertainty theta = 0.001131, k = 0.027019
        63        54        65     1      106.824196      329.099123    ;  uncertainty theta = 0.001131, k = 0.027019
        64        54        65     1      106.824196      329.099123    ;  uncertainty theta = 0.001131, k = 0.027019
        66        55        67     1      106.824196      329.099123    ;  uncertainty theta = 0.001131, k = 0.027019
        66        55        68     1      106.824196      329.099123    ;  uncertainty theta = 0.001131, k = 0.027019
        67        55        68     1      106.824196      329.099123    ;  uncertainty theta = 0.001131, k = 0.027019

[ dihedrals ] ; propers for gromacs 4.5 or higher, use funct 9
;       ai        aj        ak        al funct           phase               k        pn
         1         3         4         5     9        0.000000       -0.236471         1    ;  uncertainty k = 0.455959
         1         3         4         5     9      180.000000        9.931201         2    ;  uncertainty k = 0.601642
         1         3         4         5     9        0.000000       -0.186206         3    ;  uncertainty k = 0.418059
         1         3         4         5     9      180.000000        1.163173         4    ;  uncertainty k = 0.235920
         1         3         4        27     9        0.000000       -0.143070         1    ;  uncertainty k = 0.432062
         1         3         4        27     9      180.000000        6.613103         2    ;  uncertainty k = 0.365986
         1         3         4        27     9        0.000000        1.319810         3    ;  uncertainty k = 0.204496
         1         3         4        27     9      180.000000        1.349293         4    ;  uncertainty k = 0.122554
         1         3         8         9     9        0.000000        0.109954         1    ;  uncertainty k = 0.262413
         1         3         8         9     9      180.000000       10.551753         2    ;  uncertainty k = 0.299630
         1         3         8         9     9        0.000000       -0.436946         3    ;  uncertainty k = 0.320303
         1         3         8         9     9      180.000000        1.052019         4    ;  uncertainty k = 0.205488
         1         3         8        29     9        0.000000       -0.133184         1    ;  uncertainty k = 0.545594
         1         3         8        29     9      180.000000        6.359657         2    ;  uncertainty k = 0.465786
         1         3         8        29     9        0.000000        1.279190         3    ;  uncertainty k = 0.244965
         1         3         8        29     9      180.000000        1.197830         4    ;  uncertainty k = 0.110639
         1         7         6         5     9        0.000000       -0.199365         1    ;  uncertainty k = 0.305012
         1         7         6         5     9      180.000000       14.958407         2    ;  uncertainty k = 0.274666
         1         7         6         5     9        0.000000       -0.160062         3    ;  uncertainty k = 0.560265
         1         7         6         5     9      180.000000        0.923650         4    ;  uncertainty k = 0.323245
         1         7         6        70     9        0.000000        0.023232         1    ;  uncertainty k = 0.205015
         1         7         6        70     9      180.000000       10.173541         2    ;  uncertainty k = 0.163790
         1         7         6        70     9        0.000000        1.478818         3    ;  uncertainty k = 0.263580
         1         7         6        70     9      180.000000        1.818586         4    ;  uncertainty k = 0.235781
         1        11        10         2     9        0.000000       -0.098109         1    ;  uncertainty k = 0.103880
         1        11        10         2     9      180.000000       11.977102         2    ;  uncertainty k = 0.499591
         1        11        10         2     9        0.000000        1.641664         3    ;  uncertainty k = 0.181240
         1        11        10         2     9      180.000000        1.583245         4    ;  uncertainty k = 0.294461
         1        11        10         9     9        0.000000       -0.016064         1    ;  uncertainty k = 0.363860
         1        11        10         9     9      180.000000       11.580618         2    ;  uncertainty k = 0.359509
         1        11        10         9     9        0.000000        0.231720         3    ;  uncertainty k = 0.388512
         1        11        10         9     9      180.000000        1.169227         4    ;  uncertainty k = 0.356330
         2        10         9         8     9        0.000000        0.164911         1    ;  uncertainty k = 0.109597
         2        10         9         8     9      180.000000        7.985603         2    ;  uncertainty k = 0.684089
         2        10         9         8     9        0.000000        1.401884         3    ;  uncertainty k = 0.516389
         2        10         9         8     9      180.000000        1.511216         4    ;  uncertainty k = 0.240264
         2        10         9        30     9        0.000000        0.117258         1    ;  uncertainty k = 0.279605
         2        10         9        30     9      180.000000        6.655032         2    ;  uncertainty k = 0.247684
         2        10         9        30     9        0.000000        0.654770         3    ;  uncertainty k = 0.312079
         2        10         9        30     9      180.000000        0.893128         4    ;  uncertainty k = 0.188318
         2        10        11        31     9        0.000000       -0.308133         1    ;  uncertainty k = 0.496511
         2        10        11        31     9      180.000000        8.747930         2    ;  uncertainty k = 0.458475
         2        10        11        31     9        0.000000        0.820561         3    ;  uncertainty k = 0.242201
         2        10        11        31     9      180.000000        1.101215         4    ;  uncertainty k = 0.315486
         3         1         7         6     9        0.000000        0.092479         1    ;  uncertainty k = 0.399950
         3         1         7         6     9      180.000000        9.995810         2    ;  uncertainty k = 0.273933
         3         1         7         6     9        0.000000       -0.254518         3    ;  uncertainty k = 0.293416
         3         1         7         6     9      180.000000        1.125465         4    ;  uncertainty k = 0.172876
         3         1         7        28     9        0.000000       -0.164831         1    ;  uncertainty k = 0.607671
         3         1         7        28     9      180.000000        6.453154         2    ;  uncertainty k = 0.392050
         3         1         7        28     9        0.000000        1.256312         3    ;  uncertainty k = 0.218014
         3         1         7        28     9      180.000000        1.198925         4    ;  uncertainty k = 0.089881
         3         1        11        10     9        0.000000       -0.146526         1    ;  uncertainty k = 0.417036
         3         1        11        10     9      180.000000       10.912683         2    ;  uncertainty k = 0.424455
         3         1        11        10     9        0.000000       -0.214529         3    ;  uncertainty k = 0.262017
         3         1        11        10     9      180.000000        1.139977         4    ;  uncertainty k = 0.216374
         3         1        11        31     9        0.000000       -0.039099         1    ;  uncertainty k = 0.545103
         3         1        11        31     9      180.000000        6.355287         2    ;  uncertainty k = 0.391603
         3         1        11        31     9        0.000000        1.360905         3    ;  uncertainty k = 0.272010
         3         1        11        31     9      180.000000        1.280742         4    ;  uncertainty k = 0.142941
         3         4         5         6     9        0.000000        0.004077         1    ;  uncertainty k = 0.335468
         3         4         5         6     9      180.000000       11.920725         2    ;  uncertainty k = 0.605475
         3         4         5         6     9        0.000000       -0.045978         3    ;  uncertainty k = 0.287271
         3         4         5         6     9      180.000000        1.161328         4    ;  uncertainty k = 0.391781
         3         4         5        12     9        0.000000        0.318827         1    ;  uncertainty k = 0.269050
         3         4         5        12     9      180.000000       10.681804         2    ;  uncertainty k = 0.437609
         3         4         5        12     9        0.000000        1.650513         3    ;  uncertainty k = 0.241729
         3         4         5        12     9      180.000000        1.887401         4    ;  uncertainty k = 0.222705
         3         8         9        10     9        0.000000        0.030796         1    ;  uncertainty k = 0.387028
         3         8         9        10     9      180.000000       16.334615         2    ;  uncertainty k = 0.179867
         3         8         9        10     9        0.000000       -0.368029         3    ;  uncertainty k = 0.604887
         3         8         9        10     9      180.000000        0.872121         4    ;  uncertainty k = 0.324045
         3         8         9        30     9        0.000000        0.069721         1    ;  uncertainty k = 0.130888
         3         8         9        30     9      180.000000       10.437264         2    ;  uncertainty k = 0.265345
         3         8         9        30     9        0.000000        1.629133         3    ;  uncertainty k = 0.276296
         3         8         9        30     9      180.000000        1.809735         4    ;  uncertainty k = 0.247170
         4         3         1         7     9        0.000000       -0.172845         1    ;  uncertainty k = 0.214193
         4         3         1         7     9      180.000000        7.123971         2    ;  uncertainty k = 0.554149
         4         3         1         7     9        0.000000        0.361911         3    ;  uncertainty k = 0.163322
         4         3         1         7     9      180.000000        1.454140         4    ;  uncertainty k = 0.330719
         4         3         1        11     9        0.000000       -0.224872         1    ;  uncertainty k = 0.150339
         4         3         1        11     9      180.000000        7.187024         2    ;  uncertainty k = 0.513409
         4         3         1        11     9        0.000000        0.398941         3    ;  uncertainty k = 0.222996
         4         3         1        11     9      180.000000        1.459788         4    ;  uncertainty k = 0.324840
         4         3         8         9     9        0.000000       -0.187469         1    ;  uncertainty k = 0.451817
         4         3         8         9     9      180.000000        9.052991         2    ;  uncertainty k = 0.248884
         4         3         8         9     9        0.000000        0.302781         3    ;  uncertainty k = 0.351889
         4         3         8         9     9      180.000000        1.371995         4    ;  uncertainty k = 0.099069
         4         3         8        29     9        0.000000       -0.233670         1    ;  uncertainty k = 0.219491
         4         3         8        29     9      180.000000        6.441938         2    ;  uncertainty k = 0.474722
         4         3         8        29     9        0.000000        1.099690         3    ;  uncertainty k = 0.259899
         4         3         8        29     9      180.000000        1.098773         4    ;  uncertainty k = 0.169146
         4         5         6         7     9        0.000000       -0.032437         1    ;  uncertainty k = 0.333918
         4         5         6         7     9      180.000000        8.495532         2    ;  uncertainty k = 0.400511
         4         5         6         7     9        0.000000       -0.496537         3    ;  uncertainty k = 0.298759
         4         5         6         7     9      180.000000        1.114198         4    ;  uncertainty k = 0.217930
         4         5         6        70     9        0.000000        0.214696         1    ;  uncertainty k = 0.271212
         4         5         6        70     9      180.000000        6.313308         2    ;  uncertainty k = 0.622530
         4         5         6        70     9        0.000000        1.240198         3    ;  uncertainty k = 0.247730
         4         5         6        70     9      180.000000        1.533461         4    ;  uncertainty k = 0.217427
         4         5        12        13     9        0.000000       -0.226829         1    ;  uncertainty k = 0.383483
         4         5        12        13     9      180.000000        2.885516         2    ;  uncertainty k = 0.332361
         4         5        12        13     9        0.000000        0.342609         3    ;  uncertainty k = 0.217502
         4         5        12        13     9      180.000000       -0.211707         4    ;  uncertainty k = 0.056235
         4         5        12        15     9        0.000000       -0.354453         1    ;  uncertainty k = 0.557185
         4         5        12        15     9      180.000000        3.612976         2    ;  uncertainty k = 0.244608
         4         5        12        15     9        0.000000        0.265622         3    ;  uncertainty k = 0.221999
         4         5        12        15     9      180.000000       -0.024458         4    ;  uncertainty k = 0.060070
         5         4         3         8     9        0.000000       -0.208291         1    ;  uncertainty k = 0.468584
         5         4         3         8     9      180.000000        8.727836         2    ;  uncertainty k = 0.592627
         5         4         3         8     9        0.000000        0.502275         3    ;  uncertainty k = 0.267657
         5         4         3         8     9      180.000000        1.400451         4    ;  uncertainty k = 0.110503
         5         6         7        28     9        0.000000       -0.091973         1    ;  uncertainty k = 0.127173
         5         6         7        28     9      180.000000        9.854102         2    ;  uncertainty k = 0.463042
         5         6         7        28     9        0.000000        1.327693         3    ;  uncertainty k = 0.263738
         5         6         7        28     9      180.000000        1.856479         4    ;  uncertainty k = 0.328148
         5        12        13        14     9        0.000000        4.208624         1    ;  uncertainty k = 1.022831
         5        12        13        14     9      180.000000       12.923459         2    ;  uncertainty k = 0.251891
         5        12        13        14     9        0.000000        1.854955         3    ;  uncertainty k = 0.267265
         5        12        13        14     9      180.000000       -1.346175         4    ;  uncertainty k = 0.341606
         5        12        13        32     9        0.000000       -0.710100         1    ;  uncertainty k = 0.817222
         5        12        13        32     9      180.000000        7.707796         2    ;  uncertainty k = 0.816465
         5        12        13        32     9        0.000000        2.757471         3    ;  uncertainty k = 0.203166
         5        12        13        32     9      180.000000        0.173682         4    ;  uncertainty k = 0.499030
         6         5         4        27     9        0.000000        0.355479         1    ;  uncertainty k = 0.155831
         6         5         4        27     9      180.000000        8.443227         2    ;  uncertainty k = 0.331096
         6         5         4        27     9        0.000000        1.294488         3    ;  uncertainty k = 0.283072
         6         5         4        27     9      180.000000        1.714938         4    ;  uncertainty k = 0.264648
         6         5        12        13     9        0.000000        0.507173         1    ;  uncertainty k = 0.878707
         6         5        12        13     9      180.000000        3.181851         2    ;  uncertainty k = 0.173417
         6         5        12        13     9        0.000000        0.240869         3    ;  uncertainty k = 0.162394
         6         5        12        13     9      180.000000       -0.215132         4    ;  uncertainty k = 0.103463
         6         5        12        15     9        0.000000       -1.341394         1    ;  uncertainty k = 0.244325
         6         5        12        15     9      180.000000        3.581973         2    ;  uncertainty k = 0.210422
         6         5        12        15     9        0.000000        0.332874         3    ;  uncertainty k = 0.195265
         6         5        12        15     9      180.000000       -0.035709         4    ;  uncertainty k = 0.093685
         6         7         1        11     9        0.000000       -0.163510         1    ;  uncertainty k = 0.491231
         6         7         1        11     9      180.000000        8.993473         2    ;  uncertainty k = 0.234207
         6         7         1        11     9        0.000000        0.428988         3    ;  uncertainty k = 0.315779
         6         7         1        11     9      180.000000        1.391983         4    ;  uncertainty k = 0.155377
         7         1         3         8     9        0.000000       -0.113493         1    ;  uncertainty k = 0.171326
         7         1         3         8     9      180.000000        7.082514         2    ;  uncertainty k = 0.632412
         7         1         3         8     9        0.000000        0.347899         3    ;  uncertainty k = 0.169356
         7         1         3         8     9      180.000000        1.491319         4    ;  uncertainty k = 0.311591
         7         1        11        10     9        0.000000       -0.017465         1    ;  uncertainty k = 0.231042
         7         1        11        10     9      180.000000        9.147909         2    ;  uncertainty k = 0.480608
         7         1        11        10     9        0.000000        0.593027         3    ;  uncertainty k = 0.262103
         7         1        11        10     9      180.000000        1.473231         4    ;  uncertainty k = 0.183310
         7         1        11        31     9        0.000000       -0.018547         1    ;  uncertainty k = 0.274802
         7         1        11        31     9      180.000000        6.415578         2    ;  uncertainty k = 0.479217
         7         1        11        31     9        0.000000        1.252791         3    ;  uncertainty k = 0.217919
         7         1        11        31     9      180.000000        1.213518         4    ;  uncertainty k = 0.140447
         7         6         5        12     9        0.000000        0.295879         1    ;  uncertainty k = 0.270269
         7         6         5        12     9      180.000000        7.719430         2    ;  uncertainty k = 0.764003
         7         6         5        12     9        0.000000        1.485313         3    ;  uncertainty k = 0.238880
         7         6         5        12     9      180.000000        1.715127         4    ;  uncertainty k = 0.296998
         8         3         1        11     9        0.000000       -0.152138         1    ;  uncertainty k = 0.134162
         8         3         1        11     9      180.000000        7.118643         2    ;  uncertainty k = 0.555812
         8         3         1        11     9        0.000000        0.366209         3    ;  uncertainty k = 0.246365
         8         3         1        11     9      180.000000        1.505432         4    ;  uncertainty k = 0.286139
         8         3         4        27     9        0.000000       -0.100109         1    ;  uncertainty k = 0.144164
         8         3         4        27     9      180.000000        6.651041         2    ;  uncertainty k = 0.442062
         8         3         4        27     9        0.000000        1.170930         3    ;  uncertainty k = 0.215649
         8         3         4        27     9      180.000000        1.264914         4    ;  uncertainty k = 0.141782
         8         9        10        11     9        0.000000       -0.111269         1    ;  uncertainty k = 0.347569
         8         9        10        11     9      180.000000        7.666625         2    ;  uncertainty k = 0.629110
         8         9        10        11     9        0.000000       -0.004903         3    ;  uncertainty k = 0.476443
         8         9        10        11     9      180.000000        1.134314         4    ;  uncertainty k = 0.260546
         9        10        11        31     9        0.000000        0.120523         1    ;  uncertainty k = 0.238640
         9        10        11        31     9      180.000000        7.586027         2    ;  uncertainty k = 0.512080
         9        10        11        31     9        0.000000        1.564804         3    ;  uncertainty k = 0.349081
         9        10        11        31     9      180.000000        1.732552         4    ;  uncertainty k = 0.134660
        10         9         8        29     9        0.000000        0.024790         1    ;  uncertainty k = 0.112918
        10         9         8        29     9      180.000000        9.639881         2    ;  uncertainty k = 0.466963
        10         9         8        29     9        0.000000        1.510133         3    ;  uncertainty k = 0.297816
        10         9         8        29     9      180.000000        1.989141         4    ;  uncertainty k = 0.371017
        11         1         7        28     9        0.000000       -0.328895         1    ;  uncertainty k = 0.494687
        11         1         7        28     9      180.000000        6.537150         2    ;  uncertainty k = 0.344347
        11         1         7        28     9        0.000000        1.160809         3    ;  uncertainty k = 0.259620
        11         1         7        28     9      180.000000        1.085647         4    ;  uncertainty k = 0.190676
        11        10         9        30     9        0.000000       -0.056797         1    ;  uncertainty k = 0.199360
        11        10         9        30     9      180.000000        5.302135         2    ;  uncertainty k = 0.640332
        11        10         9        30     9        0.000000        1.188118         3    ;  uncertainty k = 0.225548
        11        10         9        30     9      180.000000        1.315183         4    ;  uncertainty k = 0.141783
        12         5         4        27     9        0.000000       -0.142835         1    ;  uncertainty k = 0.430538
        12         5         4        27     9      180.000000        8.730039         2    ;  uncertainty k = 0.435581
        12         5         4        27     9        0.000000        1.180692         3    ;  uncertainty k = 0.227499
        12         5         4        27     9      180.000000        1.290452         4    ;  uncertainty k = 0.243874
        12         5         6        70     9        0.000000       -0.110759         1    ;  uncertainty k = 0.355849
        12         5         6        70     9      180.000000        7.465896         2    ;  uncertainty k = 0.399024
        12         5         6        70     9        0.000000        0.876639         3    ;  uncertainty k = 0.199164
        12         5         6        70     9      180.000000        0.962101         4    ;  uncertainty k = 0.207544
        12        13        14        16     9        0.000000        0.601282         1    ;  uncertainty k = 0.385714
        12        13        14        16     9      180.000000        0.097603         2    ;  uncertainty k = 0.187577
        12        13        14        16     9        0.000000       -0.126824         3    ;  uncertainty k = 0.112766
        12        13        14        16     9      180.000000        0.444635         4    ;  uncertainty k = 0.222008
        12        13        14        20     9        0.000000        0.294100         1    ;  uncertainty k = 0.169329
        12        13        14        20     9      180.000000       -0.170066         2    ;  uncertainty k = 0.324940
        12        13        14        20     9        0.000000        0.177849         3    ;  uncertainty k = 0.112977
        12        13        14        20     9      180.000000        0.346429         4    ;  uncertainty k = 0.200940
        12        13        14        33     9        0.000000        1.050551         1    ;  uncertainty k = 0.238629
        12        13        14        33     9      180.000000       -0.425737         2    ;  uncertainty k = 0.217259
        12        13        14        33     9        0.000000        0.137176         3    ;  uncertainty k = 0.192895
        12        13        14        33     9      180.000000        0.198615         4    ;  uncertainty k = 0.054200
        13        14        16        17     9        0.000000       -2.559602         1    ;  uncertainty k = 0.336148
        13        14        16        17     9      180.000000       -0.208391         2    ;  uncertainty k = 0.401854
        13        14        16        17     9        0.000000        0.523091         3    ;  uncertainty k = 0.198343
        13        14        16        17     9      180.000000       -0.063877         4    ;  uncertainty k = 0.131138
        13        14        16        21     9        0.000000        0.278819         1    ;  uncertainty k = 1.001953
        13        14        16        21     9      180.000000       -1.124485         2    ;  uncertainty k = 0.743445
        13        14        16        21     9        0.000000        0.380968         3    ;  uncertainty k = 0.418945
        13        14        16        21     9      180.000000       -0.051877         4    ;  uncertainty k = 0.342968
        13        14        16        69     9        0.000000        0.012820         1    ;  uncertainty k = 0.945666
        13        14        16        69     9      180.000000       -1.430582         2    ;  uncertainty k = 0.488632
        13        14        16        69     9        0.000000        0.493840         3    ;  uncertainty k = 0.239102
        13        14        16        69     9      180.000000       -0.274826         4    ;  uncertainty k = 0.117947
        13        14        20        19     9        0.000000       -4.205301         1    ;  uncertainty k = 0.779936
        13        14        20        19     9      180.000000        0.214739         2    ;  uncertainty k = 0.167830
        13        14        20        19     9        0.000000        0.861061         3    ;  uncertainty k = 0.064038
        13        14        20        19     9      180.000000       -0.162474         4    ;  uncertainty k = 0.118819
        13        14        20        61     9        0.000000       -0.325431         1    ;  uncertainty k = 0.567390
        13        14        20        61     9      180.000000       -1.378377         2    ;  uncertainty k = 0.442553
        13        14        20        61     9        0.000000        0.906360         3    ;  uncertainty k = 0.128164
        13        14        20        61     9      180.000000       -0.286257         4    ;  uncertainty k = 0.078852
        13        14        20        62     9        0.000000       -0.325431         1    ;  uncertainty k = 0.567390
        13        14        20        62     9      180.000000       -1.378377         2    ;  uncertainty k = 0.442553
        13        14        20        62     9        0.000000        0.906360         3    ;  uncertainty k = 0.128164
        13        14        20        62     9      180.000000       -0.286257         4    ;  uncertainty k = 0.078852
        14        13        12        15     9        0.000000        3.872917         1    ;  uncertainty k = 0.624180
        14        13        12        15     9      180.000000       11.705364         2    ;  uncertainty k = 0.144656
        14        13        12        15     9        0.000000        0.546396         3    ;  uncertainty k = 0.306903
        14        13        12        15     9      180.000000        0.055726         4    ;  uncertainty k = 0.284286
        14        16        17        18     9        0.000000       -1.456094         1    ;  uncertainty k = 2.698397
        14        16        17        18     9      180.000000       -1.367148         2    ;  uncertainty k = 1.274527
        14        16        17        18     9        0.000000        0.521650         3    ;  uncertainty k = 0.498024
        14        16        17        18     9      180.000000       -1.215981         4    ;  uncertainty k = 0.213875
        14        16        17        56     9        0.000000       -0.883054         1    ;  uncertainty k = 0.510035
        14        16        17        56     9      180.000000       -0.612178         2    ;  uncertainty k = 0.165892
        14        16        17        56     9        0.000000        0.126100         3    ;  uncertainty k = 0.066204
        14        16        17        56     9      180.000000       -0.135527         4    ;  uncertainty k = 0.114275
        14        16        17        57     9        0.000000       -0.883054         1    ;  uncertainty k = 0.510035
        14        16        17        57     9      180.000000       -0.612178         2    ;  uncertainty k = 0.165892
        14        16        17        57     9        0.000000        0.126100         3    ;  uncertainty k = 0.066204
        14        16        17        57     9      180.000000       -0.135527         4    ;  uncertainty k = 0.114275
        14        16        21        22     9        0.000000        0.806166         1    ;  uncertainty k = 0.584506
        14        16        21        22     9      180.000000        0.211265         2    ;  uncertainty k = 0.186901
        14        16        21        22     9        0.000000       -0.087720         3    ;  uncertainty k = 0.110584
        14        16        21        22     9      180.000000        0.457297         4    ;  uncertainty k = 0.212195
        14        16        21        34     9        0.000000        2.721714         1    ;  uncertainty k = 0.581123
        14        16        21        34     9      180.000000       -1.552768         2    ;  uncertainty k = 0.406749
        14        16        21        34     9        0.000000        0.519713         3    ;  uncertainty k = 0.252784
        14        16        21        34     9      180.000000        0.166664         4    ;  uncertainty k = 0.147162
        14        20        19        18     9        0.000000       -5.593175         1    ;  uncertainty k = 0.714850
        14        20        19        18     9      180.000000       -1.072192         2    ;  uncertainty k = 0.658130
        14        20        19        18     9        0.000000        1.426355         3    ;  uncertainty k = 0.144725
        14        20        19        18     9      180.000000       -1.201491         4    ;  uncertainty k = 0.219565
        14        20        19        59     9        0.000000       -1.157001         1    ;  uncertainty k = 0.423408
        14        20        19        59     9      180.000000       -0.678307         2    ;  uncertainty k = 0.273240
        14        20        19        59     9        0.000000        0.402900         3    ;  uncertainty k = 0.184259
        14        20        19        59     9      180.000000       -0.085830         4    ;  uncertainty k = 0.031937
        14        20        19        60     9        0.000000       -1.157001         1    ;  uncertainty k = 0.423408
        14        20        19        60     9      180.000000       -0.678307         2    ;  uncertainty k = 0.273240
        14        20        19        60     9        0.000000        0.402900         3    ;  uncertainty k = 0.184259
        14        20        19        60     9      180.000000       -0.085830         4    ;  uncertainty k = 0.031937
        15        12        13        32     9        0.000000        3.188488         1    ;  uncertainty k = 0.788054
        15        12        13        32     9      180.000000       15.090008         2    ;  uncertainty k = 0.094750
        15        12        13        32     9        0.000000        1.480144         3    ;  uncertainty k = 0.192272
        15        12        13        32     9      180.000000       -0.537644         4    ;  uncertainty k = 0.209463
        16        14        13        32     9        0.000000        2.375087         1    ;  uncertainty k = 0.624749
        16        14        13        32     9      180.000000       -1.674999         2    ;  uncertainty k = 0.682370
        16        14        13        32     9        0.000000        0.530473         3    ;  uncertainty k = 0.242932
        16        14        13        32     9      180.000000        0.141680         4    ;  uncertainty k = 0.118978
        16        14        20        19     9        0.000000       -4.799166         1    ;  uncertainty k = 1.380522
        16        14        20        19     9      180.000000        0.190384         2    ;  uncertainty k = 0.746255
        16        14        20        19     9        0.000000        0.931598         3    ;  uncertainty k = 0.334613
        16        14        20        19     9      180.000000       -1.207051         4    ;  uncertainty k = 0.155975
        16        14        20        61     9        0.000000       -0.720050         1    ;  uncertainty k = 0.645871
        16        14        20        61     9      180.000000       -0.677819         2    ;  uncertainty k = 0.272256
        16        14        20        61     9        0.000000        0.102385         3    ;  uncertainty k = 0.042680
        16        14        20        61     9      180.000000       -0.121601         4    ;  uncertainty k = 0.091983
        16        14        20        62     9        0.000000       -0.720050         1    ;  uncertainty k = 0.645871
        16        14        20        62     9      180.000000       -0.677819         2    ;  uncertainty k = 0.272256
        16        14        20        62     9        0.000000        0.102385         3    ;  uncertainty k = 0.042680
        16        14        20        62     9      180.000000       -0.121601         4    ;  uncertainty k = 0.091983
        16        17        18        19     9        0.000000       -3.684684         1    ;  uncertainty k = 1.555404
        16        17        18        19     9      180.000000       -0.286572         2    ;  uncertainty k = 0.574153
        16        17        18        19     9        0.000000        0.981635         3    ;  uncertainty k = 0.134172
        16        17        18        19     9      180.000000       -1.149549         4    ;  uncertainty k = 0.220596
        16        17        18        51     9        0.000000       -1.988663         1    ;  uncertainty k = 0.821936
        16        17        18        51     9      180.000000       -0.960549         2    ;  uncertainty k = 0.272982
        16        17        18        51     9        0.000000        0.443546         3    ;  uncertainty k = 0.317502
        16        17        18        51     9      180.000000        0.183458         4    ;  uncertainty k = 0.094088
        16        17        18        58     9        0.000000       -1.929217         1    ;  uncertainty k = 0.461104
        16        17        18        58     9      180.000000       -0.447748         2    ;  uncertainty k = 0.220193
        16        17        18        58     9        0.000000        0.087566         3    ;  uncertainty k = 0.087859
        16        17        18        58     9      180.000000       -0.164482         4    ;  uncertainty k = 0.141866
        16        21        22        23     9        0.000000        3.958068         1    ;  uncertainty k = 1.380043
        16        21        22        23     9      180.000000       12.511831         2    ;  uncertainty k = 0.156026
        16        21        22        23     9        0.000000        1.263553         3    ;  uncertainty k = 0.259475
        16        21        22        23     9      180.000000       -1.435052         4    ;  uncertainty k = 0.493362
        16        21        22        24     9        0.000000        4.206341         1    ;  uncertainty k = 1.055487
        16        21        22        24     9      180.000000       13.261930         2    ;  uncertainty k = 0.104052
        16        21        22        24     9        0.000000        0.422296         3    ;  uncertainty k = 0.282045
        16        21        22        24     9      180.000000       -0.345763         4    ;  uncertainty k = 0.133307
        17        16        14        20     9        0.000000       -1.504684         1    ;  uncertainty k = 2.486553
        17        16        14        20     9      180.000000        0.518860         2    ;  uncertainty k = 0.966084
        17        16        14        20     9        0.000000        0.428097         3    ;  uncertainty k = 0.506905
        17        16        14        20     9      180.000000       -1.121235         4    ;  uncertainty k = 0.264904
        17        16        14        33     9        0.000000       -1.278716         1    ;  uncertainty k = 0.309689
        17        16        14        33     9      180.000000       -0.212447         2    ;  uncertainty k = 0.244461
        17        16        14        33     9        0.000000       -0.235545         3    ;  uncertainty k = 0.061727
        17        16        14        33     9      180.000000       -0.145454         4    ;  uncertainty k = 0.046357
        17        16        21        22     9        0.000000        0.364606         1    ;  uncertainty k = 0.383608
        17        16        21        22     9      180.000000        0.211641         2    ;  uncertainty k = 0.299414
        17        16        21        22     9        0.000000        0.181029         3    ;  uncertainty k = 0.072944
        17        16        21        22     9      180.000000        0.342393         4    ;  uncertainty k = 0.127149
        17        16        21        34     9        0.000000        0.945683         1    ;  uncertainty k = 0.464115
        17        16        21        34     9      180.000000       -0.514672         2    ;  uncertainty k = 0.347973
        17        16        21        34     9        0.000000        0.327272         3    ;  uncertainty k = 0.178732
        17        16        21        34     9      180.000000        0.059847         4    ;  uncertainty k = 0.085826
        17        18        19        20     9        0.000000       -5.487573         1    ;  uncertainty k = 0.618648
        17        18        19        20     9      180.000000        0.628450         2    ;  uncertainty k = 0.548060
        17        18        19        20     9        0.000000        1.367560         3    ;  uncertainty k = 0.173350
        17        18        19        20     9      180.000000       -1.033143         4    ;  uncertainty k = 0.273102
        17        18        19        59     9        0.000000       -1.226844         1    ;  uncertainty k = 0.266748
        17        18        19        59     9      180.000000       -0.345485         2    ;  uncertainty k = 0.101300
        17        18        19        59     9        0.000000        0.394880         3    ;  uncertainty k = 0.108227
        17        18        19        59     9      180.000000       -0.070781         4    ;  uncertainty k = 0.048007
        17        18        19        60     9        0.000000       -1.226844         1    ;  uncertainty k = 0.266748
        17        18        19        60     9      180.000000       -0.345485         2    ;  uncertainty k = 0.101300
        17        18        19        60     9        0.000000        0.394880         3    ;  uncertainty k = 0.108227
        17        18        19        60     9      180.000000       -0.070781         4    ;  uncertainty k = 0.048007
        17        18        51        52     9        0.000000       -1.170185         1    ;  uncertainty k = 0.334655
        17        18        51        52     9      180.000000        4.880266         2    ;  uncertainty k = 0.323686
        17        18        51        52     9        0.000000        1.279706         3    ;  uncertainty k = 0.118363
        17        18        51        52     9      180.000000        0.575624         4    ;  uncertainty k = 0.083005
        17        18        51        53     9        0.000000       -1.631697         1    ;  uncertainty k = 0.279350
        17        18        51        53     9      180.000000        3.392199         2    ;  uncertainty k = 0.510159
        17        18        51        53     9        0.000000        0.814553         3    ;  uncertainty k = 0.127255
        17        18        51        53     9      180.000000        0.128487         4    ;  uncertainty k = 0.053904
        18        17        16        21     9        0.000000       -2.824384         1    ;  uncertainty k = 0.488217
        18        17        16        21     9      180.000000       -0.460507         2    ;  uncertainty k = 0.536155
        18        17        16        21     9        0.000000        0.759551         3    ;  uncertainty k = 0.189386
        18        17        16        21     9      180.000000       -0.140203         4    ;  uncertainty k = 0.174781
        18        17        16        69     9        0.000000       -0.730287         1    ;  uncertainty k = 0.498293
        18        17        16        69     9      180.000000       -0.792172         2    ;  uncertainty k = 0.456680
        18        17        16        69     9        0.000000       -0.041965         3    ;  uncertainty k = 0.196130
        18        17        16        69     9      180.000000       -0.091310         4    ;  uncertainty k = 0.082273
        18        19        20        61     9        0.000000       -1.242829         1    ;  uncertainty k = 0.333977
        18        19        20        61     9      180.000000       -0.548741         2    ;  uncertainty k = 0.201763
        18        19        20        61     9        0.000000        0.486940         3    ;  uncertainty k = 0.161944
        18        19        20        61     9      180.000000       -0.063210         4    ;  uncertainty k = 0.051028
        18        19        20        62     9        0.000000       -1.242829         1    ;  uncertainty k = 0.333977
        18        19        20        62     9      180.000000       -0.548741         2    ;  uncertainty k = 0.201763
        18        19        20        62     9        0.000000        0.486940         3    ;  uncertainty k = 0.161944
        18        19        20        62     9      180.000000       -0.063210         4    ;  uncertainty k = 0.051028
        18        51        53        54     9        0.000000        9.050821         1    ;  uncertainty k = 0.304912
        18        51        53        54     9      180.000000        6.374692         2    ;  uncertainty k = 0.405917
        18        51        53        54     9        0.000000        1.178678         3    ;  uncertainty k = 0.297789
        18        51        53        54     9      180.000000        0.054538         4    ;  uncertainty k = 0.124306
        18        51        53        55     9        0.000000        9.050821         1    ;  uncertainty k = 0.304912
        18        51        53        55     9      180.000000        6.374692         2    ;  uncertainty k = 0.405917
        18        51        53        55     9        0.000000        1.178678         3    ;  uncertainty k = 0.297789
        18        51        53        55     9      180.000000        0.054538         4    ;  uncertainty k = 0.124306
        19        18        17        56     9        0.000000       -1.411123         1    ;  uncertainty k = 0.345622
        19        18        17        56     9      180.000000       -0.225290         2    ;  uncertainty k = 0.172594
        19        18        17        56     9        0.000000        0.346843         3    ;  uncertainty k = 0.114252
        19        18        17        56     9      180.000000       -0.038457         4    ;  uncertainty k = 0.044896
        19        18        17        57     9        0.000000       -1.411123         1    ;  uncertainty k = 0.345622
        19        18        17        57     9      180.000000       -0.225290         2    ;  uncertainty k = 0.172594
        19        18        17        57     9        0.000000        0.346843         3    ;  uncertainty k = 0.114252
        19        18        17        57     9      180.000000       -0.038457         4    ;  uncertainty k = 0.044896
        19        18        51        52     9        0.000000       -1.412751         1    ;  uncertainty k = 0.366362
        19        18        51        52     9      180.000000        4.939282         2    ;  uncertainty k = 0.250194
        19        18        51        52     9        0.000000        1.341107         3    ;  uncertainty k = 0.099404
        19        18        51        52     9      180.000000        0.562838         4    ;  uncertainty k = 0.064019
        19        18        51        53     9        0.000000       -1.501807         1    ;  uncertainty k = 0.463410
        19        18        51        53     9      180.000000        3.323275         2    ;  uncertainty k = 0.502078
        19        18        51        53     9        0.000000        0.807080         3    ;  uncertainty k = 0.124119
        19        18        51        53     9      180.000000        0.125518         4    ;  uncertainty k = 0.039696
        19        20        14        33     9        0.000000       -1.467351         1    ;  uncertainty k = 0.297862
        19        20        14        33     9      180.000000       -0.260937         2    ;  uncertainty k = 0.244178
        19        20        14        33     9        0.000000        0.030506         3    ;  uncertainty k = 0.107026
        19        20        14        33     9      180.000000       -0.152086         4    ;  uncertainty k = 0.105150
        20        14        13        32     9        0.000000        0.479502         1    ;  uncertainty k = 0.688340
        20        14        13        32     9      180.000000       -0.574239         2    ;  uncertainty k = 0.339791
        20        14        13        32     9        0.000000        0.295464         3    ;  uncertainty k = 0.125697
        20        14        13        32     9      180.000000        0.039717         4    ;  uncertainty k = 0.047395
        20        14        16        21     9        0.000000       -2.820073         1    ;  uncertainty k = 0.490711
        20        14        16        21     9      180.000000       -0.095912         2    ;  uncertainty k = 0.364544
        20        14        16        21     9        0.000000        0.587215         3    ;  uncertainty k = 0.175247
        20        14        16        21     9      180.000000       -0.068556         4    ;  uncertainty k = 0.196383
        20        14        16        69     9        0.000000       -1.249975         1    ;  uncertainty k = 0.255477
        20        14        16        69     9      180.000000       -0.309296         2    ;  uncertainty k = 0.362140
        20        14        16        69     9        0.000000       -0.218771         3    ;  uncertainty k = 0.084394
        20        14        16        69     9      180.000000       -0.165295         4    ;  uncertainty k = 0.069703
        20        19        18        51     9        0.000000       -3.042856         1    ;  uncertainty k = 1.255460
        20        19        18        51     9      180.000000       -0.384066         2    ;  uncertainty k = 0.506050
        20        19        18        51     9        0.000000        0.568068         3    ;  uncertainty k = 0.143563
        20        19        18        51     9      180.000000        0.123689         4    ;  uncertainty k = 0.149073
        20        19        18        58     9        0.000000       -2.461228         1    ;  uncertainty k = 0.396150
        20        19        18        58     9      180.000000        0.138744         2    ;  uncertainty k = 0.107060
        20        19        18        58     9        0.000000        0.248333         3    ;  uncertainty k = 0.111967
        20        19        18        58     9      180.000000       -0.235150         4    ;  uncertainty k = 0.140386
        21        16        14        33     9        0.000000        0.054737         1    ;  uncertainty k = 1.101159
        21        16        14        33     9      180.000000       -1.465237         2    ;  uncertainty k = 0.517976
        21        16        14        33     9        0.000000        0.499357         3    ;  uncertainty k = 0.269250
        21        16        14        33     9      180.000000       -0.255299         4    ;  uncertainty k = 0.119667
        21        16        17        56     9        0.000000       -0.427435         1    ;  uncertainty k = 0.715503
        21        16        17        56     9      180.000000       -1.219759         2    ;  uncertainty k = 0.324042
        21        16        17        56     9        0.000000        0.959594         3    ;  uncertainty k = 0.057792
        21        16        17        56     9      180.000000       -0.287421         4    ;  uncertainty k = 0.054437
        21        16        17        57     9        0.000000       -0.427435         1    ;  uncertainty k = 0.715503
        21        16        17        57     9      180.000000       -1.219759         2    ;  uncertainty k = 0.324042
        21        16        17        57     9        0.000000        0.959594         3    ;  uncertainty k = 0.057792
        21        16        17        57     9      180.000000       -0.287421         4    ;  uncertainty k = 0.054437
        21        22        23        25     9        0.000000        2.331066         1    ;  uncertainty k = 1.152102
        21        22        23        25     9      180.000000        2.596169         2    ;  uncertainty k = 0.278815
        21        22        23        25     9        0.000000        0.009927         3    ;  uncertainty k = 0.144977
        21        22        23        25     9      180.000000       -0.114334         4    ;  uncertainty k = 0.149289
        21        22        23        26     9        0.000000        3.367960         1    ;  uncertainty k = 1.051353
        21        22        23        26     9      180.000000        3.218021         2    ;  uncertainty k = 0.680396
        21        22        23        26     9        0.000000        1.143577         3    ;  uncertainty k = 0.311002
        21        22        23        26     9      180.000000       -0.348976         4    ;  uncertainty k = 0.193639
        22        21        16        69     9        0.000000        1.089648         1    ;  uncertainty k = 0.334910
        22        21        16        69     9      180.000000       -0.432136         2    ;  uncertainty k = 0.173910
        22        21        16        69     9        0.000000        0.083475         3    ;  uncertainty k = 0.110493
        22        21        16        69     9      180.000000        0.217577         4    ;  uncertainty k = 0.051810
        22        23        25        35     9        0.000000        0.338836         1    ;  uncertainty k = 0.784673
        22        23        25        35     9      180.000000       19.192857         2    ;  uncertainty k = 0.359716
        22        23        25        35     9        0.000000        1.903447         3    ;  uncertainty k = 0.386883
        22        23        25        35     9      180.000000        1.368535         4    ;  uncertainty k = 0.528772
        22        23        26        36     9        0.000000        0.370727         1    ;  uncertainty k = 1.804242
        22        23        26        36     9      180.000000        8.920830         2    ;  uncertainty k = 1.081273
        22        23        26        36     9        0.000000        0.589745         3    ;  uncertainty k = 1.110553
        22        23        26        36     9      180.000000        0.676613         4    ;  uncertainty k = 0.547063
        23        22        21        34     9        0.000000       -0.086051         1    ;  uncertainty k = 0.569285
        23        22        21        34     9      180.000000        6.824223         2    ;  uncertainty k = 1.004102
        23        22        21        34     9        0.000000        2.774672         3    ;  uncertainty k = 0.278048
        23        22        21        34     9      180.000000        0.087878         4    ;  uncertainty k = 0.345011
        23        25        35        36     9        0.000000       -0.476241         1    ;  uncertainty k = 0.425307
        23        25        35        36     9      180.000000       15.671500         2    ;  uncertainty k = 0.795841
        23        25        35        36     9        0.000000       -2.864533         3    ;  uncertainty k = 0.780902
        23        25        35        36     9      180.000000        1.605024         4    ;  uncertainty k = 0.448125
        23        25        35        40     9        0.000000        0.569206         1    ;  uncertainty k = 1.621980
        23        25        35        40     9      180.000000       12.800205         2    ;  uncertainty k = 0.282748
        23        25        35        40     9        0.000000        1.817073         3    ;  uncertainty k = 0.361654
        23        25        35        40     9      180.000000        0.682642         4    ;  uncertainty k = 0.136948
        23        26        36        35     9        0.000000       -0.523789         1    ;  uncertainty k = 1.004169
        23        26        36        35     9      180.000000       13.442345         2    ;  uncertainty k = 0.923619
        23        26        36        35     9        0.000000       -9.024257         3    ;  uncertainty k = 1.660071
        23        26        36        35     9      180.000000        1.636793         4    ;  uncertainty k = 0.487983
        23        26        36        37     9        0.000000        1.116166         1    ;  uncertainty k = 1.266411
        23        26        36        37     9      180.000000       10.158909         2    ;  uncertainty k = 0.818049
        23        26        36        37     9        0.000000        0.724355         3    ;  uncertainty k = 0.566010
        23        26        36        37     9      180.000000       -0.026620         4    ;  uncertainty k = 0.200593
        24        22        21        34     9        0.000000        2.038363         1    ;  uncertainty k = 0.746143
        24        22        21        34     9      180.000000       14.699346         2    ;  uncertainty k = 0.325315
        24        22        21        34     9        0.000000        1.840592         3    ;  uncertainty k = 0.226058
        24        22        21        34     9      180.000000       -0.518143         4    ;  uncertainty k = 0.264067
        24        22        23        25     9        0.000000       -0.975565         1    ;  uncertainty k = 1.614283
        24        22        23        25     9      180.000000        3.488550         2    ;  uncertainty k = 0.286154
        24        22        23        25     9        0.000000        0.632000         3    ;  uncertainty k = 0.220397
        24        22        23        25     9      180.000000        0.223278         4    ;  uncertainty k = 0.063243
        24        22        23        26     9        0.000000       -0.928770         1    ;  uncertainty k = 0.780300
        24        22        23        26     9      180.000000        4.634695         2    ;  uncertainty k = 0.475093
        24        22        23        26     9        0.000000        0.007574         3    ;  uncertainty k = 0.071977
        24        22        23        26     9      180.000000        0.288910         4    ;  uncertainty k = 0.240907
        25        23        26        36     9        0.000000        0.143511         1    ;  uncertainty k = 1.333641
        25        23        26        36     9      180.000000       14.564367         2    ;  uncertainty k = 1.374348
        25        23        26        36     9        0.000000       -9.893199         3    ;  uncertainty k = 1.620531
        25        23        26        36     9      180.000000        1.663619         4    ;  uncertainty k = 0.759588
        25        35        36        26     9        0.000000        0.087022         1    ;  uncertainty k = 0.519435
        25        35        36        26     9      180.000000       17.308740         2    ;  uncertainty k = 0.865665
        25        35        36        26     9        0.000000       -2.374264         3    ;  uncertainty k = 0.748324
        25        35        36        26     9      180.000000        1.160228         4    ;  uncertainty k = 0.641111
        25        35        36        37     9        0.000000        0.011055         1    ;  uncertainty k = 0.425259
        25        35        36        37     9      180.000000       14.953749         2    ;  uncertainty k = 0.328993
        25        35        36        37     9        0.000000        1.241934         3    ;  uncertainty k = 0.342959
        25        35        36        37     9      180.000000        1.144042         4    ;  uncertainty k = 0.470191
        25        35        40        39     9        0.000000       -3.954572         1    ;  uncertainty k = 1.035742
        25        35        40        39     9      180.000000        1.199577         2    ;  uncertainty k = 0.494541
        25        35        40        39     9        0.000000        0.552603         3    ;  uncertainty k = 0.196554
        25        35        40        39     9      180.000000        0.408701         4    ;  uncertainty k = 0.071879
        25        35        40        46     9        0.000000        0.678330         1    ;  uncertainty k = 0.150352
        25        35        40        46     9      180.000000        1.438459         2    ;  uncertainty k = 0.504096
        25        35        40        46     9        0.000000        0.609129         3    ;  uncertainty k = 0.196471
        25        35        40        46     9      180.000000        0.167234         4    ;  uncertainty k = 0.108981
        25        35        40        47     9        0.000000        0.678330         1    ;  uncertainty k = 0.150352
        25        35        40        47     9      180.000000        1.438459         2    ;  uncertainty k = 0.504096
        25        35        40        47     9        0.000000        0.609129         3    ;  uncertainty k = 0.196471
        25        35        40        47     9      180.000000        0.167234         4    ;  uncertainty k = 0.108981
        26        23        25        35     9        0.000000       -0.152600         1    ;  uncertainty k = 0.906407
        26        23        25        35     9      180.000000       20.432965         2    ;  uncertainty k = 0.275340
        26        23        25        35     9        0.000000       -2.337892         3    ;  uncertainty k = 1.016825
        26        23        25        35     9      180.000000        1.938626         4    ;  uncertainty k = 0.362221
        26        36        35        40     9        0.000000        0.239944         1    ;  uncertainty k = 0.547138
        26        36        35        40     9      180.000000       12.400727         2    ;  uncertainty k = 0.549556
        26        36        35        40     9        0.000000        0.936373         3    ;  uncertainty k = 0.318788
        26        36        35        40     9      180.000000        0.958147         4    ;  uncertainty k = 0.190163
        26        36        37        38     9        0.000000       -8.471687         1    ;  uncertainty k = 1.305576
        26        36        37        38     9      180.000000       -0.738803         2    ;  uncertainty k = 0.986263
        26        36        37        38     9        0.000000        0.572190         3    ;  uncertainty k = 0.535086
        26        36        37        38     9      180.000000        0.223231         4    ;  uncertainty k = 0.263405
        26        36        37        42     9        0.000000        0.153964         1    ;  uncertainty k = 0.629108
        26        36        37        42     9      180.000000        0.393717         2    ;  uncertainty k = 0.317135
        26        36        37        42     9        0.000000        0.658149         3    ;  uncertainty k = 0.161833
        26        36        37        42     9      180.000000       -0.071880         4    ;  uncertainty k = 0.067074
        26        36        37        43     9        0.000000        0.153964         1    ;  uncertainty k = 0.629108
        26        36        37        43     9      180.000000        0.393717         2    ;  uncertainty k = 0.317135
        26        36        37        43     9        0.000000        0.658149         3    ;  uncertainty k = 0.161833
        26        36        37        43     9      180.000000       -0.071880         4    ;  uncertainty k = 0.067074
        28         7         6        70     9        0.000000       -0.244726         1    ;  uncertainty k = 0.307103
        28         7         6        70     9      180.000000        8.629916         2    ;  uncertainty k = 0.491909
        28         7         6        70     9        0.000000       -0.225191         3    ;  uncertainty k = 0.207484
        28         7         6        70     9      180.000000        0.336235         4    ;  uncertainty k = 0.263843
        29         8         9        30     9        0.000000       -0.065576         1    ;  uncertainty k = 0.189208
        29         8         9        30     9      180.000000        8.797900         2    ;  uncertainty k = 0.503832
        29         8         9        30     9        0.000000       -0.254110         3    ;  uncertainty k = 0.222852
        29         8         9        30     9      180.000000        0.204449         4    ;  uncertainty k = 0.202854
        32        13        14        33     9        0.000000        0.687929         1    ;  uncertainty k = 0.419174
        32        13        14        33     9      180.000000       -0.717369         2    ;  uncertainty k = 0.300397
        32        13        14        33     9        0.000000        0.194839         3    ;  uncertainty k = 0.171699
        32        13        14        33     9      180.000000        0.154890         4    ;  uncertainty k = 0.052071
        33        14        16        69     9        0.000000        1.517573         1    ;  uncertainty k = 0.280340
        33        14        16        69     9      180.000000       -0.682840         2    ;  uncertainty k = 0.153382
        33        14        16        69     9        0.000000       -0.217673         3    ;  uncertainty k = 0.163694
        33        14        16        69     9      180.000000       -0.045475         4    ;  uncertainty k = 0.124283
        33        14        20        61     9        0.000000        1.378248         1    ;  uncertainty k = 0.283982
        33        14        20        61     9      180.000000       -0.518557         2    ;  uncertainty k = 0.212077
        33        14        20        61     9        0.000000       -0.078054         3    ;  uncertainty k = 0.110894
        33        14        20        61     9      180.000000        0.040284         4    ;  uncertainty k = 0.027626
        33        14        20        62     9        0.000000        1.378248         1    ;  uncertainty k = 0.283982
        33        14        20        62     9      180.000000       -0.518557         2    ;  uncertainty k = 0.212077
        33        14        20        62     9        0.000000       -0.078054         3    ;  uncertainty k = 0.110894
        33        14        20        62     9      180.000000        0.040284         4    ;  uncertainty k = 0.027626
        34        21        16        69     9        0.000000        0.541481         1    ;  uncertainty k = 0.398177
        34        21        16        69     9      180.000000       -0.622570         2    ;  uncertainty k = 0.184277
        34        21        16        69     9        0.000000        0.191619         3    ;  uncertainty k = 0.116496
        34        21        16        69     9      180.000000        0.189193         4    ;  uncertainty k = 0.076095
        35        36        37        38     9        0.000000       -4.140071         1    ;  uncertainty k = 1.925675
        35        36        37        38     9      180.000000        2.074247         2    ;  uncertainty k = 0.552905
        35        36        37        38     9        0.000000       -0.109904         3    ;  uncertainty k = 0.505232
        35        36        37        38     9      180.000000        0.002033         4    ;  uncertainty k = 0.168271
        35        36        37        42     9        0.000000        0.751076         1    ;  uncertainty k = 0.572851
        35        36        37        42     9      180.000000        0.321327         2    ;  uncertainty k = 0.277446
        35        36        37        42     9        0.000000       -0.191165         3    ;  uncertainty k = 0.140749
        35        36        37        42     9      180.000000       -0.337116         4    ;  uncertainty k = 0.203995
        35        36        37        43     9        0.000000        0.751076         1    ;  uncertainty k = 0.572851
        35        36        37        43     9      180.000000        0.321327         2    ;  uncertainty k = 0.277446
        35        36        37        43     9        0.000000       -0.191165         3    ;  uncertainty k = 0.140749
        35        36        37        43     9      180.000000       -0.337116         4    ;  uncertainty k = 0.203995
        35        40        39        38     9        0.000000       -2.230974         1    ;  uncertainty k = 1.801449
        35        40        39        38     9      180.000000       -1.841150         2    ;  uncertainty k = 0.733686
        35        40        39        38     9        0.000000        2.407959         3    ;  uncertainty k = 0.680334
        35        40        39        38     9      180.000000       -0.535745         4    ;  uncertainty k = 0.301690
        35        40        39        44     9        0.000000        1.199598         1    ;  uncertainty k = 0.377899
        35        40        39        44     9      180.000000       -1.613470         2    ;  uncertainty k = 0.549592
        35        40        39        44     9        0.000000        0.472706         3    ;  uncertainty k = 0.260800
        35        40        39        44     9      180.000000        0.111560         4    ;  uncertainty k = 0.091588
        35        40        39        45     9        0.000000        1.199598         1    ;  uncertainty k = 0.377899
        35        40        39        45     9      180.000000       -1.613470         2    ;  uncertainty k = 0.549592
        35        40        39        45     9        0.000000        0.472706         3    ;  uncertainty k = 0.260800
        35        40        39        45     9      180.000000        0.111560         4    ;  uncertainty k = 0.091588
        36        35        40        39     9        0.000000       -4.440652         1    ;  uncertainty k = 1.431166
        36        35        40        39     9      180.000000        4.155396         2    ;  uncertainty k = 1.296225
        36        35        40        39     9        0.000000       -0.642889         3    ;  uncertainty k = 0.597439
        36        35        40        39     9      180.000000       -0.217610         4    ;  uncertainty k = 0.318749
        36        35        40        46     9        0.000000        0.013025         1    ;  uncertainty k = 0.359065
        36        35        40        46     9      180.000000        1.250042         2    ;  uncertainty k = 0.490358
        36        35        40        46     9        0.000000        0.121610         3    ;  uncertainty k = 0.182463
        36        35        40        46     9      180.000000       -0.043715         4    ;  uncertainty k = 0.054548
        36        35        40        47     9        0.000000        0.013025         1    ;  uncertainty k = 0.359065
        36        35        40        47     9      180.000000        1.250042         2    ;  uncertainty k = 0.490358
        36        35        40        47     9        0.000000        0.121610         3    ;  uncertainty k = 0.182463
        36        35        40        47     9      180.000000       -0.043715         4    ;  uncertainty k = 0.054548
        36        37        38        39     9        0.000000       -2.931117         1    ;  uncertainty k = 2.436693
        36        37        38        39     9      180.000000       -1.451129         2    ;  uncertainty k = 0.464093
        36        37        38        39     9        0.000000        1.404828         3    ;  uncertainty k = 0.130307
        36        37        38        39     9      180.000000       -0.528609         4    ;  uncertainty k = 0.249297
        36        37        38        41     9        0.000000       -2.021362         1    ;  uncertainty k = 1.008927
        36        37        38        41     9      180.000000       -1.118312         2    ;  uncertainty k = 0.472230
        36        37        38        41     9        0.000000        1.258207         3    ;  uncertainty k = 0.234248
        36        37        38        41     9      180.000000       -0.045254         4    ;  uncertainty k = 0.250793
        37        36        35        40     9        0.000000        0.282381         1    ;  uncertainty k = 0.657141
        37        36        35        40     9      180.000000       10.551064         2    ;  uncertainty k = 0.221306
        37        36        35        40     9        0.000000        1.077819         3    ;  uncertainty k = 0.516713
        37        36        35        40     9      180.000000        0.991474         4    ;  uncertainty k = 0.186199
        37        38        39        40     9        0.000000       -4.350974         1    ;  uncertainty k = 2.057076
        37        38        39        40     9      180.000000       -1.496991         2    ;  uncertainty k = 0.799614
        37        38        39        40     9        0.000000        0.281379         3    ;  uncertainty k = 0.338606
        37        38        39        40     9      180.000000       -0.187310         4    ;  uncertainty k = 0.252807
        37        38        39        44     9        0.000000       -6.987612         1    ;  uncertainty k = 0.982733
        37        38        39        44     9      180.000000       -0.297910         2    ;  uncertainty k = 0.446998
        37        38        39        44     9        0.000000        0.675891         3    ;  uncertainty k = 0.207193
        37        38        39        44     9      180.000000       -0.045061         4    ;  uncertainty k = 0.100310
        37        38        39        45     9        0.000000       -6.987612         1    ;  uncertainty k = 0.982733
        37        38        39        45     9      180.000000       -0.297910         2    ;  uncertainty k = 0.446998
        37        38        39        45     9        0.000000        0.675891         3    ;  uncertainty k = 0.207193
        37        38        39        45     9      180.000000       -0.045061         4    ;  uncertainty k = 0.100310
        37        38        41        48     9        0.000000       -4.178510         1    ;  uncertainty k = 0.410688
        37        38        41        48     9      180.000000       -2.187807         2    ;  uncertainty k = 0.398638
        37        38        41        48     9        0.000000        1.157619         3    ;  uncertainty k = 0.069416
        37        38        41        48     9      180.000000        0.075129         4    ;  uncertainty k = 0.097696
        37        38        41        49     9        0.000000       -4.178510         1    ;  uncertainty k = 0.410688
        37        38        41        49     9      180.000000       -2.187807         2    ;  uncertainty k = 0.398638
        37        38        41        49     9        0.000000        1.157619         3    ;  uncertainty k = 0.069416
        37        38        41        49     9      180.000000        0.075129         4    ;  uncertainty k = 0.097696
        37        38        41        50     9        0.000000       -4.178510         1    ;  uncertainty k = 0.410688
        37        38        41        50     9      180.000000       -2.187807         2    ;  uncertainty k = 0.398638
        37        38        41        50     9        0.000000        1.157619         3    ;  uncertainty k = 0.069416
        37        38        41        50     9      180.000000        0.075129         4    ;  uncertainty k = 0.097696
        38        39        40        46     9        0.000000       -0.446420         1    ;  uncertainty k = 0.389425
        38        39        40        46     9      180.000000       -0.446895         2    ;  uncertainty k = 0.443633
        38        39        40        46     9        0.000000        1.043482         3    ;  uncertainty k = 0.139130
        38        39        40        46     9      180.000000       -0.054508         4    ;  uncertainty k = 0.166266
        38        39        40        47     9        0.000000       -0.446420         1    ;  uncertainty k = 0.389425
        38        39        40        47     9      180.000000       -0.446895         2    ;  uncertainty k = 0.443633
        38        39        40        47     9        0.000000        1.043482         3    ;  uncertainty k = 0.139130
        38        39        40        47     9      180.000000       -0.054508         4    ;  uncertainty k = 0.166266
        39        38        37        42     9        0.000000       -4.951174         1    ;  uncertainty k = 1.276230
        39        38        37        42     9      180.000000       -0.772512         2    ;  uncertainty k = 0.594344
        39        38        37        42     9        0.000000        0.687582         3    ;  uncertainty k = 0.234878
        39        38        37        42     9      180.000000        0.165440         4    ;  uncertainty k = 0.126758
        39        38        37        43     9        0.000000       -4.951174         1    ;  uncertainty k = 1.276230
        39        38        37        43     9      180.000000       -0.772512         2    ;  uncertainty k = 0.594344
        39        38        37        43     9        0.000000        0.687582         3    ;  uncertainty k = 0.234878
        39        38        37        43     9      180.000000        0.165440         4    ;  uncertainty k = 0.126758
        39        38        41        48     9        0.000000       -4.259086         1    ;  uncertainty k = 0.974846
        39        38        41        48     9      180.000000       -2.027003         2    ;  uncertainty k = 0.417753
        39        38        41        48     9        0.000000        1.017651         3    ;  uncertainty k = 0.103023
        39        38        41        48     9      180.000000        0.065258         4    ;  uncertainty k = 0.091860
        39        38        41        49     9        0.000000       -4.259086         1    ;  uncertainty k = 0.974846
        39        38        41        49     9      180.000000       -2.027003         2    ;  uncertainty k = 0.417753
        39        38        41        49     9        0.000000        1.017651         3    ;  uncertainty k = 0.103023
        39        38        41        49     9      180.000000        0.065258         4    ;  uncertainty k = 0.091860
        39        38        41        50     9        0.000000       -4.259086         1    ;  uncertainty k = 0.974846
        39        38        41        50     9      180.000000       -2.027003         2    ;  uncertainty k = 0.417753
        39        38        41        50     9        0.000000        1.017651         3    ;  uncertainty k = 0.103023
        39        38        41        50     9      180.000000        0.065258         4    ;  uncertainty k = 0.091860
        40        39        38        41     9        0.000000       -2.366425         1    ;  uncertainty k = 0.799682
        40        39        38        41     9      180.000000       -0.858215         2    ;  uncertainty k = 0.575132
        40        39        38        41     9        0.000000        0.300582         3    ;  uncertainty k = 0.302529
        40        39        38        41     9      180.000000        0.326407         4    ;  uncertainty k = 0.081722
        41        38        37        42     9        0.000000       -2.503106         1    ;  uncertainty k = 0.610923
        41        38        37        42     9      180.000000       -1.207857         2    ;  uncertainty k = 0.461275
        41        38        37        42     9        0.000000        0.607046         3    ;  uncertainty k = 0.147323
        41        38        37        42     9      180.000000        0.178325         4    ;  uncertainty k = 0.088460
        41        38        37        43     9        0.000000       -2.503106         1    ;  uncertainty k = 0.610923
        41        38        37        43     9      180.000000       -1.207857         2    ;  uncertainty k = 0.461275
        41        38        37        43     9        0.000000        0.607046         3    ;  uncertainty k = 0.147323
        41        38        37        43     9      180.000000        0.178325         4    ;  uncertainty k = 0.088460
        41        38        39        44     9        0.000000       -3.143701         1    ;  uncertainty k = 0.576024
        41        38        39        44     9      180.000000       -1.381403         2    ;  uncertainty k = 0.223671
        41        38        39        44     9        0.000000        0.354530         3    ;  uncertainty k = 0.126408
        41        38        39        44     9      180.000000        0.148173         4    ;  uncertainty k = 0.137426
        41        38        39        45     9        0.000000       -3.143701         1    ;  uncertainty k = 0.576024
        41        38        39        45     9      180.000000       -1.381403         2    ;  uncertainty k = 0.223671
        41        38        39        45     9        0.000000        0.354530         3    ;  uncertainty k = 0.126408
        41        38        39        45     9      180.000000        0.148173         4    ;  uncertainty k = 0.137426
        44        39        40        46     9        0.000000       -0.690419         1    ;  uncertainty k = 0.249272
        44        39        40        46     9      180.000000        0.819889         2    ;  uncertainty k = 0.297922
        44        39        40        46     9        0.000000        0.232501         3    ;  uncertainty k = 0.086816
        44        39        40        46     9      180.000000       -0.277806         4    ;  uncertainty k = 0.067741
        44        39        40        47     9        0.000000       -0.690419         1    ;  uncertainty k = 0.249272
        44        39        40        47     9      180.000000        0.819889         2    ;  uncertainty k = 0.297922
        44        39        40        47     9        0.000000        0.232501         3    ;  uncertainty k = 0.086816
        44        39        40        47     9      180.000000       -0.277806         4    ;  uncertainty k = 0.067741
        45        39        40        46     9        0.000000       -0.690419         1    ;  uncertainty k = 0.249272
        45        39        40        46     9      180.000000        0.819889         2    ;  uncertainty k = 0.297922
        45        39        40        46     9        0.000000        0.232501         3    ;  uncertainty k = 0.086816
        45        39        40        46     9      180.000000       -0.277806         4    ;  uncertainty k = 0.067741
        45        39        40        47     9        0.000000       -0.690419         1    ;  uncertainty k = 0.249272
        45        39        40        47     9      180.000000        0.819889         2    ;  uncertainty k = 0.297922
        45        39        40        47     9        0.000000        0.232501         3    ;  uncertainty k = 0.086816
        45        39        40        47     9      180.000000       -0.277806         4    ;  uncertainty k = 0.067741
        51        18        17        56     9        0.000000        2.074967         1    ;  uncertainty k = 0.921198
        51        18        17        56     9      180.000000       -0.794571         2    ;  uncertainty k = 0.180952
        51        18        17        56     9        0.000000        0.466866         3    ;  uncertainty k = 0.273235
        51        18        17        56     9      180.000000        0.035537         4    ;  uncertainty k = 0.093276
        51        18        17        57     9        0.000000        2.074967         1    ;  uncertainty k = 0.921198
        51        18        17        57     9      180.000000       -0.794571         2    ;  uncertainty k = 0.180952
        51        18        17        57     9        0.000000        0.466866         3    ;  uncertainty k = 0.273235
        51        18        17        57     9      180.000000        0.035537         4    ;  uncertainty k = 0.093276
        51        18        19        59     9        0.000000        2.252951         1    ;  uncertainty k = 0.998081
        51        18        19        59     9      180.000000       -0.859965         2    ;  uncertainty k = 0.120364
        51        18        19        59     9        0.000000        0.534711         3    ;  uncertainty k = 0.219264
        51        18        19        59     9      180.000000        0.057172         4    ;  uncertainty k = 0.086080
        51        18        19        60     9        0.000000        2.252951         1    ;  uncertainty k = 0.998081
        51        18        19        60     9      180.000000       -0.859965         2    ;  uncertainty k = 0.120364
        51        18        19        60     9        0.000000        0.534711         3    ;  uncertainty k = 0.219264
        51        18        19        60     9      180.000000        0.057172         4    ;  uncertainty k = 0.086080
        51        53        54        63     9        0.000000        0.159650         1    ;  uncertainty k = 0.146342
        51        53        54        63     9      180.000000       -0.144813         2    ;  uncertainty k = 0.094204
        51        53        54        63     9        0.000000        0.215227         3    ;  uncertainty k = 0.050987
        51        53        54        63     9      180.000000        0.244118         4    ;  uncertainty k = 0.052779
        51        53        54        64     9        0.000000        0.159650         1    ;  uncertainty k = 0.146342
        51        53        54        64     9      180.000000       -0.144813         2    ;  uncertainty k = 0.094204
        51        53        54        64     9        0.000000        0.215227         3    ;  uncertainty k = 0.050987
        51        53        54        64     9      180.000000        0.244118         4    ;  uncertainty k = 0.052779
        51        53        54        65     9        0.000000        0.159650         1    ;  uncertainty k = 0.146342
        51        53        54        65     9      180.000000       -0.144813         2    ;  uncertainty k = 0.094204
        51        53        54        65     9        0.000000        0.215227         3    ;  uncertainty k = 0.050987
        51        53        54        65     9      180.000000        0.244118         4    ;  uncertainty k = 0.052779
        51        53        55        66     9        0.000000        0.159650         1    ;  uncertainty k = 0.146342
        51        53        55        66     9      180.000000       -0.144813         2    ;  uncertainty k = 0.094204
        51        53        55        66     9        0.000000        0.215227         3    ;  uncertainty k = 0.050987
        51        53        55        66     9      180.000000        0.244118         4    ;  uncertainty k = 0.052779
        51        53        55        67     9        0.000000        0.159650         1    ;  uncertainty k = 0.146342
        51        53        55        67     9      180.000000       -0.144813         2    ;  uncertainty k = 0.094204
        51        53        55        67     9        0.000000        0.215227         3    ;  uncertainty k = 0.050987
        51        53        55        67     9      180.000000        0.244118         4    ;  uncertainty k = 0.052779
        51        53        55        68     9        0.000000        0.159650         1    ;  uncertainty k = 0.146342
        51        53        55        68     9      180.000000       -0.144813         2    ;  uncertainty k = 0.094204
        51        53        55        68     9        0.000000        0.215227         3    ;  uncertainty k = 0.050987
        51        53        55        68     9      180.000000        0.244118         4    ;  uncertainty k = 0.052779
        52        51        18        58     9        0.000000       -0.646773         1    ;  uncertainty k = 0.397646
        52        51        18        58     9      180.000000        3.762065         2    ;  uncertainty k = 0.492695
        52        51        18        58     9        0.000000        1.483897         3    ;  uncertainty k = 0.235291
        52        51        18        58     9      180.000000       -0.025919         4    ;  uncertainty k = 0.096422
        52        51        53        54     9        0.000000        6.844605         1    ;  uncertainty k = 0.882211
        52        51        53        54     9      180.000000       19.790839         2    ;  uncertainty k = 0.105250
        52        51        53        54     9        0.000000       -0.220230         3    ;  uncertainty k = 0.161100
        52        51        53        54     9      180.000000       -1.123904         4    ;  uncertainty k = 0.136735
        52        51        53        55     9        0.000000        6.844605         1    ;  uncertainty k = 0.882211
        52        51        53        55     9      180.000000       19.790839         2    ;  uncertainty k = 0.105250
        52        51        53        55     9        0.000000       -0.220230         3    ;  uncertainty k = 0.161100
        52        51        53        55     9      180.000000       -1.123904         4    ;  uncertainty k = 0.136735
        53        51        18        58     9        0.000000       -0.975826         1    ;  uncertainty k = 0.419407
        53        51        18        58     9      180.000000        2.303974         2    ;  uncertainty k = 0.241164
        53        51        18        58     9        0.000000        0.361698         3    ;  uncertainty k = 0.116719
        53        51        18        58     9      180.000000        0.170218         4    ;  uncertainty k = 0.047482
        54        53        55        66     9        0.000000       -0.681994         1    ;  uncertainty k = 0.166187
        54        53        55        66     9      180.000000       -1.033629         2    ;  uncertainty k = 0.139918
        54        53        55        66     9        0.000000        1.312135         3    ;  uncertainty k = 0.057549
        54        53        55        66     9      180.000000        0.172025         4    ;  uncertainty k = 0.029064
        54        53        55        67     9        0.000000       -0.681994         1    ;  uncertainty k = 0.166187
        54        53        55        67     9      180.000000       -1.033629         2    ;  uncertainty k = 0.139918
        54        53        55        67     9        0.000000        1.312135         3    ;  uncertainty k = 0.057549
        54        53        55        67     9      180.000000        0.172025         4    ;  uncertainty k = 0.029064
        54        53        55        68     9        0.000000       -0.681994         1    ;  uncertainty k = 0.166187
        54        53        55        68     9      180.000000       -1.033629         2    ;  uncertainty k = 0.139918
        54        53        55        68     9        0.000000        1.312135         3    ;  uncertainty k = 0.057549
        54        53        55        68     9      180.000000        0.172025         4    ;  uncertainty k = 0.029064
        55        53        54        63     9        0.000000       -0.681994         1    ;  uncertainty k = 0.166187
        55        53        54        63     9      180.000000       -1.033629         2    ;  uncertainty k = 0.139918
        55        53        54        63     9        0.000000        1.312135         3    ;  uncertainty k = 0.057549
        55        53        54        63     9      180.000000        0.172025         4    ;  uncertainty k = 0.029064
        55        53        54        64     9        0.000000       -0.681994         1    ;  uncertainty k = 0.166187
        55        53        54        64     9      180.000000       -1.033629         2    ;  uncertainty k = 0.139918
        55        53        54        64     9        0.000000        1.312135         3    ;  uncertainty k = 0.057549
        55        53        54        64     9      180.000000        0.172025         4    ;  uncertainty k = 0.029064
        55        53        54        65     9        0.000000       -0.681994         1    ;  uncertainty k = 0.166187
        55        53        54        65     9      180.000000       -1.033629         2    ;  uncertainty k = 0.139918
        55        53        54        65     9        0.000000        1.312135         3    ;  uncertainty k = 0.057549
        55        53        54        65     9      180.000000        0.172025         4    ;  uncertainty k = 0.029064
        56        17        16        69     9        0.000000        1.227188         1    ;  uncertainty k = 0.333718
        56        17        16        69     9      180.000000       -0.559059         2    ;  uncertainty k = 0.228850
        56        17        16        69     9        0.000000       -0.052658         3    ;  uncertainty k = 0.148156
        56        17        16        69     9      180.000000        0.050866         4    ;  uncertainty k = 0.043410
        56        17        18        58     9        0.000000        1.275091         1    ;  uncertainty k = 0.308666
        56        17        18        58     9      180.000000       -0.191825         2    ;  uncertainty k = 0.161770
        56        17        18        58     9        0.000000       -0.005639         3    ;  uncertainty k = 0.106020
        56        17        18        58     9      180.000000        0.069270         4    ;  uncertainty k = 0.064132
        57        17        16        69     9        0.000000        1.227188         1    ;  uncertainty k = 0.333718
        57        17        16        69     9      180.000000       -0.559059         2    ;  uncertainty k = 0.228850
        57        17        16        69     9        0.000000       -0.052658         3    ;  uncertainty k = 0.148156
        57        17        16        69     9      180.000000        0.050866         4    ;  uncertainty k = 0.043410
        57        17        18        58     9        0.000000        1.275091         1    ;  uncertainty k = 0.308666
        57        17        18        58     9      180.000000       -0.191825         2    ;  uncertainty k = 0.161770
        57        17        18        58     9        0.000000       -0.005639         3    ;  uncertainty k = 0.106020
        57        17        18        58     9      180.000000        0.069270         4    ;  uncertainty k = 0.064132
        58        18        19        59     9        0.000000        1.375228         1    ;  uncertainty k = 0.292892
        58        18        19        59     9      180.000000       -0.112288         2    ;  uncertainty k = 0.227466
        58        18        19        59     9        0.000000       -0.024960         3    ;  uncertainty k = 0.142904
        58        18        19        59     9      180.000000        0.069958         4    ;  uncertainty k = 0.050452
        58        18        19        60     9        0.000000        1.375228         1    ;  uncertainty k = 0.292892
        58        18        19        60     9      180.000000       -0.112288         2    ;  uncertainty k = 0.227466
        58        18        19        60     9        0.000000       -0.024960         3    ;  uncertainty k = 0.142904
        58        18        19        60     9      180.000000        0.069958         4    ;  uncertainty k = 0.050452
        59        19        20        61     9        0.000000        2.326715         1    ;  uncertainty k = 0.674870
        59        19        20        61     9      180.000000       -0.090546         2    ;  uncertainty k = 0.158885
        59        19        20        61     9        0.000000        0.306144         3    ;  uncertainty k = 0.135782
        59        19        20        61     9      180.000000        0.130862         4    ;  uncertainty k = 0.038651
        59        19        20        62     9        0.000000        2.326715         1    ;  uncertainty k = 0.674870
        59        19        20        62     9      180.000000       -0.090546         2    ;  uncertainty k = 0.158885
        59        19        20        62     9        0.000000        0.306144         3    ;  uncertainty k = 0.135782
        59        19        20        62     9      180.000000        0.130862         4    ;  uncertainty k = 0.038651
        60        19        20        61     9        0.000000        2.326715         1    ;  uncertainty k = 0.674870
        60        19        20        61     9      180.000000       -0.090546         2    ;  uncertainty k = 0.158885
        60        19        20        61     9        0.000000        0.306144         3    ;  uncertainty k = 0.135782
        60        19        20        61     9      180.000000        0.130862         4    ;  uncertainty k = 0.038651
        60        19        20        62     9        0.000000        2.326715         1    ;  uncertainty k = 0.674870
        60        19        20        62     9      180.000000       -0.090546         2    ;  uncertainty k = 0.158885
        60        19        20        62     9        0.000000        0.306144         3    ;  uncertainty k = 0.135782
        60        19        20        62     9      180.000000        0.130862         4    ;  uncertainty k = 0.038651

[ dihedrals ] ; impropers
;       ai        aj        ak        al funct           phase               k        pn
         1         3         7        11     4      180.000000        9.247106         2    ;  uncertainty k = 0.090643
         1         7        11         3     4      180.000000        9.247106         2    ;  uncertainty k = 0.090643
         1        11         3         7     4      180.000000        9.247106         2    ;  uncertainty k = 0.090643
         3         1         4         8     4      180.000000        7.842225         2    ;  uncertainty k = 0.141811
         3         4         8         1     4      180.000000        7.842225         2    ;  uncertainty k = 0.141811
         3         8         1         4     4      180.000000        7.842225         2    ;  uncertainty k = 0.141811
         4         3         5        27     4      180.000000        4.086201         2    ;  uncertainty k = 0.253321
         4         5        27         3     4      180.000000        4.086201         2    ;  uncertainty k = 0.253321
         4        27         3         5     4      180.000000        4.086201         2    ;  uncertainty k = 0.253321
         5         4         6        12     4      180.000000        8.103378         2    ;  uncertainty k = 0.083505
         5         6        12         4     4      180.000000        8.103378         2    ;  uncertainty k = 0.083505
         5        12         4         6     4      180.000000        8.103378         2    ;  uncertainty k = 0.083505
         6         5         7        70     4      180.000000        4.326436         2    ;  uncertainty k = 0.119722
         6         7        70         5     4      180.000000        4.326436         2    ;  uncertainty k = 0.119722
         6        70         5         7     4      180.000000        4.326436         2    ;  uncertainty k = 0.119722
         7         1         6        28     4      180.000000        3.628051         2    ;  uncertainty k = 0.240079
         7         6        28         1     4      180.000000        3.628051         2    ;  uncertainty k = 0.240079
         7        28         1         6     4      180.000000        3.628051         2    ;  uncertainty k = 0.240079
         8         3         9        29     4      180.000000        4.335827         2    ;  uncertainty k = 0.176942
         8         9        29         3     4      180.000000        4.335827         2    ;  uncertainty k = 0.176942
         8        29         3         9     4      180.000000        4.335827         2    ;  uncertainty k = 0.176942
         9         8        10        30     4      180.000000        3.615606         2    ;  uncertainty k = 0.100357
         9        10        30         8     4      180.000000        3.615606         2    ;  uncertainty k = 0.100357
         9        30         8        10     4      180.000000        3.615606         2    ;  uncertainty k = 0.100357
        10         2         9        11     4      180.000000       13.800839         2    ;  uncertainty k = 0.034728
        10         9        11         2     4      180.000000       13.800839         2    ;  uncertainty k = 0.034728
        10        11         2         9     4      180.000000       13.800839         2    ;  uncertainty k = 0.034728
        11         1        10        31     4      180.000000        3.464662         2    ;  uncertainty k = 0.313692
        11        10        31         1     4      180.000000        3.464662         2    ;  uncertainty k = 0.313692
        11        31         1        10     4      180.000000        3.464662         2    ;  uncertainty k = 0.313692
        12         5        13        15     4      180.000000       50.967208         2    ;  uncertainty k = 0.035344
        12        13        15         5     4      180.000000       50.967208         2    ;  uncertainty k = 0.035344
        12        15         5        13     4      180.000000       50.967208         2    ;  uncertainty k = 0.035344
        22        21        23        24     4      180.000000       49.476644         2    ;  uncertainty k = 0.014914
        22        23        24        21     4      180.000000       49.476644         2    ;  uncertainty k = 0.014914
        22        24        21        23     4      180.000000       49.476644         2    ;  uncertainty k = 0.014914
        23        22        25        26     4      180.000000        4.762177         2    ;  uncertainty k = 0.485670
        23        25        26        22     4      180.000000        4.762177         2    ;  uncertainty k = 0.485670
        23        26        22        25     4      180.000000        4.762177         2    ;  uncertainty k = 0.485670
        35        25        36        40     4      180.000000       10.302524         2    ;  uncertainty k = 0.235813
        35        36        40        25     4      180.000000       10.302524         2    ;  uncertainty k = 0.235813
        35        40        25        36     4      180.000000       10.302524         2    ;  uncertainty k = 0.235813
        36        26        35        37     4      180.000000        2.894551         2    ;  uncertainty k = 0.672593
        36        35        37        26     4      180.000000        2.894551         2    ;  uncertainty k = 0.672593
        36        37        26        35     4      180.000000        2.894551         2    ;  uncertainty k = 0.672593
        51        18        52        53     4      180.000000       51.316640         2    ;  uncertainty k = 0.028239
        51        52        53        18     4      180.000000       51.316640         2    ;  uncertainty k = 0.028239
        51        53        18        52     4      180.000000       51.316640         2    ;  uncertainty k = 0.028239

[ pairs ]
;       ai        aj funct
         1         2     1
         1         5     1
         1         9     1
         1        27     1
         1        29     1
         1        70     1
         2         8     1
         2        30     1
         2        31     1
         3         6     1
         3        10     1
         3        12     1
         3        28     1
         3        30     1
         3        31     1
         4         7     1
         4         9     1
         4        11     1
         4        13     1
         4        15     1
         4        29     1
         4        70     1
         5         8     1
         5        14     1
         5        28     1
         5        32     1
         6        11     1
         6        13     1
         6        15     1
         6        27     1
         7         8     1
         7        10     1
         7        12     1
         7        31     1
         8        11     1
         8        27     1
         9        31     1
        10        29     1
        11        28     1
        11        30     1
        12        16     1
        12        20     1
        12        27     1
        12        33     1
        12        70     1
        13        17     1
        13        19     1
        13        21     1
        13        61     1
        13        62     1
        13        69     1
        14        15     1
        14        18     1
        14        22     1
        14        34     1
        14        56     1
        14        57     1
        14        59     1
        14        60     1
        15        32     1
        16        19     1
        16        23     1
        16        24     1
        16        32     1
        16        51     1
        16        58     1
        16        61     1
        16        62     1
        17        20     1
        17        22     1
        17        33     1
        17        34     1
        17        52     1
        17        53     1
        17        59     1
        17        60     1
        18        21     1
        18        54     1
        18        55     1
        18        61     1
        18        62     1
        18        69     1
        19        33     1
        19        52     1
        19        53     1
        19        56     1
        19        57     1
        20        21     1
        20        32     1
        20        51     1
        20        58     1
        20        69     1
        21        25     1
        21        26     1
        21        33     1
        21        56     1
        21        57     1
        22        35     1
        22        36     1
        22        69     1
        23        34     1
        23        37     1
        23        40     1
        24        25     1
        24        26     1
        24        34     1
        25        37     1
        25        39     1
        25        46     1
        25        47     1
        26        38     1
        26        40     1
        26        42     1
        26        43     1
        28        70     1
        29        30     1
        32        33     1
        33        61     1
        33        62     1
        33        69     1
        34        69     1
        35        38     1
        35        42     1
        35        43     1
        35        44     1
        35        45     1
        36        39     1
        36        41     1
        36        46     1
        36        47     1
        37        40     1
        37        44     1
        37        45     1
        37        48     1
        37        49     1
        37        50     1
        38        46     1
        38        47     1
        39        42     1
        39        43     1
        39        48     1
        39        49     1
        39        50     1
        40        41     1
        41        42     1
        41        43     1
        41        44     1
        41        45     1
        44        46     1
        44        47     1
        45        46     1
        45        47     1
        51        56     1
        51        57     1
        51        59     1
        51        60     1
        51        63     1
        51        64     1
        51        65     1
        51        66     1
        51        67     1
        51        68     1
        52        54     1
        52        55     1
        52        58     1
        53        58     1
        54        66     1
        54        67     1
        54        68     1
        55        63     1
        55        64     1
        55        65     1
        56        58     1
        56        69     1
        57        58     1
        57        69     1
        58        59     1
        58        60     1
        59        61     1
        59        62     1
        60        61     1
        60        62     1
