; ITP file created by ByteFF-joint-25, 2025-07-14 11:37:41.910656

[ atomtypes ]
;name           bonded.type        at.num        mass        charge   ptype           sigma         epsilon
 c0bf                                   6      0.0000       0.00000       A     3.31523e-01     4.13497e-01    ;  uncertainty sigma = 0.000006, epsilon = 0.000865
 cl1bf                                 17      0.0000       0.00000       A     3.46607e-01     1.10412e+00    ;  uncertainty sigma = 0.000014, epsilon = 0.000714
 c2bf                                   6      0.0000       0.00000       A     3.31509e-01     4.13298e-01    ;  uncertainty sigma = 0.000009, epsilon = 0.000734
 n3bf                                   7      0.0000       0.00000       A     3.38399e-01     3.93787e-01    ;  uncertainty sigma = 0.000016, epsilon = 0.001155
 c4bf                                   6      0.0000       0.00000       A     3.31514e-01     4.12903e-01    ;  uncertainty sigma = 0.000022, epsilon = 0.001155
 c5bf                                   6      0.0000       0.00000       A     3.31527e-01     4.13261e-01    ;  uncertainty sigma = 0.000009, epsilon = 0.000890
 c6bf                                   6      0.0000       0.00000       A     3.31493e-01     4.13053e-01    ;  uncertainty sigma = 0.000008, epsilon = 0.000777
 c7bf                                   6      0.0000       0.00000       A     3.31523e-01     4.13247e-01    ;  uncertainty sigma = 0.000002, epsilon = 0.000460
 c8bf                                   6      0.0000       0.00000       A     3.31524e-01     4.13404e-01    ;  uncertainty sigma = 0.000004, epsilon = 0.000537
 c9bf                                   6      0.0000       0.00000       A     3.31530e-01     4.13097e-01    ;  uncertainty sigma = 0.000002, epsilon = 0.000685
 c10bf                                  6      0.0000       0.00000       A     3.31514e-01     4.13478e-01    ;  uncertainty sigma = 0.000004, epsilon = 0.000909
 c11bf                                  6      0.0000       0.00000       A     3.31533e-01     4.12504e-01    ;  uncertainty sigma = 0.000013, epsilon = 0.001322
 n12bf                                  7      0.0000       0.00000       A     3.27036e-01     4.89403e-01    ;  uncertainty sigma = 0.000037, epsilon = 0.002699
 c13bf                                  6      0.0000       0.00000       A     3.39789e-01     4.50800e-01    ;  uncertainty sigma = 0.000020, epsilon = 0.000925
 o14bf                                  8      0.0000       0.00000       A     3.04815e-01     6.12643e-01    ;  uncertainty sigma = 0.000028, epsilon = 0.001007
 c15bf                                  6      0.0000       0.00000       A     3.39779e-01     4.50691e-01    ;  uncertainty sigma = 0.000021, epsilon = 0.001068
 c16bf                                  6      0.0000       0.00000       A     3.39785e-01     4.51177e-01    ;  uncertainty sigma = 0.000013, epsilon = 0.000568
 c17bf                                  6      0.0000       0.00000       A     3.39788e-01     4.50813e-01    ;  uncertainty sigma = 0.000005, epsilon = 0.001015
 c18bf                                  6      0.0000       0.00000       A     3.39784e-01     4.51089e-01    ;  uncertainty sigma = 0.000005, epsilon = 0.000646
 c19bf                                  6      0.0000       0.00000       A     3.39763e-01     4.50994e-01    ;  uncertainty sigma = 0.000009, epsilon = 0.000666
 n20bf                                  7      0.0000       0.00000       A     3.27037e-01     4.89849e-01    ;  uncertainty sigma = 0.000029, epsilon = 0.003194
 c21bf                                  6      0.0000       0.00000       A     3.31529e-01     4.12690e-01    ;  uncertainty sigma = 0.000018, epsilon = 0.001128
 c22bf                                  6      0.0000       0.00000       A     3.31525e-01     4.13652e-01    ;  uncertainty sigma = 0.000013, epsilon = 0.001225
 o23bf                                  8      0.0000       0.00000       A     3.04890e-01     6.12219e-01    ;  uncertainty sigma = 0.000024, epsilon = 0.000874
 n24bf                                  7      0.0000       0.00000       A     3.38354e-01     3.93161e-01    ;  uncertainty sigma = 0.000020, epsilon = 0.001245
 s25bf                                 16      0.0000       0.00000       A     3.53288e-01     1.18179e+00    ;  uncertainty sigma = 0.000032, epsilon = 0.002346
 h26bf                                  1      0.0000       0.00000       A     2.62558e-01     6.71093e-02    ;  uncertainty sigma = 0.000009, epsilon = 0.000520
 h27bf                                  1      0.0000       0.00000       A     2.62558e-01     6.69657e-02    ;  uncertainty sigma = 0.000013, epsilon = 0.000593
 h28bf                                  1      0.0000       0.00000       A     2.62554e-01     6.70235e-02    ;  uncertainty sigma = 0.000011, epsilon = 0.000687
 h29bf                                  1      0.0000       0.00000       A     2.62576e-01     6.70674e-02    ;  uncertainty sigma = 0.000008, epsilon = 0.000447
 h30bf                                  1      0.0000       0.00000       A     1.10671e-01     4.15432e-02    ;  uncertainty sigma = 0.000099, epsilon = 0.000844
 h31bf                                  1      0.0000       0.00000       A     2.42165e-01     8.67649e-02    ;  uncertainty sigma = 0.000033, epsilon = 0.001355
 h32bf                                  1      0.0000       0.00000       A     1.10666e-01     4.15404e-02    ;  uncertainty sigma = 0.000113, epsilon = 0.000907
 c33bf                                  6      0.0000       0.00000       A     3.31531e-01     4.13284e-01    ;  uncertainty sigma = 0.000022, epsilon = 0.000692
 c34bf                                  6      0.0000       0.00000       A     3.31510e-01     4.13232e-01    ;  uncertainty sigma = 0.000021, epsilon = 0.000971
 c35bf                                  6      0.0000       0.00000       A     3.39772e-01     4.51291e-01    ;  uncertainty sigma = 0.000007, epsilon = 0.001369
 n36bf                                  7      0.0000       0.00000       A     3.36491e-01     3.58344e-01    ;  uncertainty sigma = 0.000019, epsilon = 0.001758
 c37bf                                  6      0.0000       0.00000       A     3.39770e-01     4.51225e-01    ;  uncertainty sigma = 0.000009, epsilon = 0.000671
 c38bf                                  6      0.0000       0.00000       A     3.39762e-01     4.51164e-01    ;  uncertainty sigma = 0.000008, epsilon = 0.001424
 c39bf                                  6      0.0000       0.00000       A     3.39770e-01     4.51318e-01    ;  uncertainty sigma = 0.000003, epsilon = 0.000740
 h40bf                                  1      0.0000       0.00000       A     2.42250e-01     8.62902e-02    ;  uncertainty sigma = 0.000037, epsilon = 0.000964
 h41bf                                  1      0.0000       0.00000       A     2.42250e-01     8.62902e-02    ;  uncertainty sigma = 0.000037, epsilon = 0.000964
 h42bf                                  1      0.0000       0.00000       A     2.42218e-01     8.69005e-02    ;  uncertainty sigma = 0.000021, epsilon = 0.000739
 h43bf                                  1      0.0000       0.00000       A     2.42218e-01     8.69005e-02    ;  uncertainty sigma = 0.000021, epsilon = 0.000739
 h44bf                                  1      0.0000       0.00000       A     2.60015e-01     8.68230e-02    ;  uncertainty sigma = 0.000020, epsilon = 0.000739
 h45bf                                  1      0.0000       0.00000       A     2.60015e-01     8.68230e-02    ;  uncertainty sigma = 0.000020, epsilon = 0.000739
 h46bf                                  1      0.0000       0.00000       A     2.42198e-01     8.68693e-02    ;  uncertainty sigma = 0.000014, epsilon = 0.000543
 h47bf                                  1      0.0000       0.00000       A     2.42198e-01     8.68693e-02    ;  uncertainty sigma = 0.000014, epsilon = 0.000543
 h48bf                                  1      0.0000       0.00000       A     2.42198e-01     8.68693e-02    ;  uncertainty sigma = 0.000014, epsilon = 0.000543
 c49bf                                  6      0.0000       0.00000       A     3.31545e-01     4.13066e-01    ;  uncertainty sigma = 0.000011, epsilon = 0.001034
 o50bf                                  8      0.0000       0.00000       A     3.04819e-01     6.12467e-01    ;  uncertainty sigma = 0.000013, epsilon = 0.000996
 n51bf                                  7      0.0000       0.00000       A     3.18136e-01     6.84509e-01    ;  uncertainty sigma = 0.000019, epsilon = 0.001339
 c52bf                                  6      0.0000       0.00000       A     3.39777e-01     4.50876e-01    ;  uncertainty sigma = 0.000006, epsilon = 0.000504
 c53bf                                  6      0.0000       0.00000       A     3.39777e-01     4.50876e-01    ;  uncertainty sigma = 0.000006, epsilon = 0.000504
 h54bf                                  1      0.0000       0.00000       A     2.60016e-01     8.65219e-02    ;  uncertainty sigma = 0.000021, epsilon = 0.000613
 h55bf                                  1      0.0000       0.00000       A     2.60016e-01     8.65219e-02    ;  uncertainty sigma = 0.000021, epsilon = 0.000613
 h56bf                                  1      0.0000       0.00000       A     2.60030e-01     8.70270e-02    ;  uncertainty sigma = 0.000011, epsilon = 0.000538
 h57bf                                  1      0.0000       0.00000       A     2.60020e-01     8.66352e-02    ;  uncertainty sigma = 0.000016, epsilon = 0.000625
 h58bf                                  1      0.0000       0.00000       A     2.60020e-01     8.66352e-02    ;  uncertainty sigma = 0.000016, epsilon = 0.000625
 h59bf                                  1      0.0000       0.00000       A     2.60024e-01     8.67210e-02    ;  uncertainty sigma = 0.000008, epsilon = 0.000629
 h60bf                                  1      0.0000       0.00000       A     2.60024e-01     8.67210e-02    ;  uncertainty sigma = 0.000008, epsilon = 0.000629
 h61bf                                  1      0.0000       0.00000       A     2.42196e-01     8.67627e-02    ;  uncertainty sigma = 0.000011, epsilon = 0.000510
 h62bf                                  1      0.0000       0.00000       A     2.42196e-01     8.67627e-02    ;  uncertainty sigma = 0.000011, epsilon = 0.000510
 h63bf                                  1      0.0000       0.00000       A     2.42196e-01     8.67627e-02    ;  uncertainty sigma = 0.000011, epsilon = 0.000510
 h64bf                                  1      0.0000       0.00000       A     2.42196e-01     8.67627e-02    ;  uncertainty sigma = 0.000011, epsilon = 0.000510
 h65bf                                  1      0.0000       0.00000       A     2.42196e-01     8.67627e-02    ;  uncertainty sigma = 0.000011, epsilon = 0.000510
 h66bf                                  1      0.0000       0.00000       A     2.42196e-01     8.67627e-02    ;  uncertainty sigma = 0.000011, epsilon = 0.000510
 h67bf                                  1      0.0000       0.00000       A     2.42143e-01     8.68216e-02    ;  uncertainty sigma = 0.000035, epsilon = 0.001353
 h68bf                                  1      0.0000       0.00000       A     2.62560e-01     6.72136e-02    ;  uncertainty sigma = 0.000013, epsilon = 0.000747

[ moleculetype ]
;name             nrexcl
 MOL                   3

[ atoms ]
;       nr            type      resi   res      atom      cgnr      charge          mass ; qtot
         1            c0bf         1   UNL        c0         1    -0.12470       12.0110 ; qtot   -0.125
         2           cl1bf         1   UNL       cl1         2    -0.11076       35.4530 ; qtot   -0.235
         3            c2bf         1   UNL        c2         3     0.39341       12.0110 ; qtot    0.158
         4            n3bf         1   UNL        n3         4    -0.65604       14.0070 ; qtot   -0.498
         5            c4bf         1   UNL        c4         5     0.37702       12.0110 ; qtot   -0.121
         6            c5bf         1   UNL        c5         6    -0.20087       12.0110 ; qtot   -0.322
         7            c6bf         1   UNL        c6         7    -0.08167       12.0110 ; qtot   -0.404
         8            c7bf         1   UNL        c7         8    -0.15024       12.0110 ; qtot   -0.554
         9            c8bf         1   UNL        c8         9    -0.10994       12.0110 ; qtot   -0.664
        10            c9bf         1   UNL        c9        10     0.02574       12.0110 ; qtot   -0.638
        11           c10bf         1   UNL       c10        11    -0.09739       12.0110 ; qtot   -0.735
        12           c11bf         1   UNL       c11        12     0.57319       12.0110 ; qtot   -0.162
        13           n12bf         1   UNL       n12        13    -0.55651       14.0070 ; qtot   -0.719
        14           c13bf         1   UNL       c13        14     0.10388       12.0110 ; qtot   -0.615
        15           o14bf         1   UNL       o14        15    -0.60183       15.9990 ; qtot   -1.217
        16           c15bf         1   UNL       c15        16     0.10493       12.0110 ; qtot   -1.112
        17           c16bf         1   UNL       c16        17    -0.07517       12.0110 ; qtot   -1.187
        18           c17bf         1   UNL       c17        18    -0.13250       12.0110 ; qtot   -1.319
        19           c18bf         1   UNL       c18        19    -0.06578       12.0110 ; qtot   -1.385
        20           c19bf         1   UNL       c19        20    -0.08734       12.0110 ; qtot   -1.473
        21           n20bf         1   UNL       n20        21    -0.55641       14.0070 ; qtot   -2.029
        22           c21bf         1   UNL       c21        22     0.59414       12.0110 ; qtot   -1.435
        23           c22bf         1   UNL       c22        23     0.37509       12.0110 ; qtot   -1.060
        24           o23bf         1   UNL       o23        24    -0.57698       15.9990 ; qtot   -1.637
        25           n24bf         1   UNL       n24        25    -0.60853       14.0070 ; qtot   -2.245
        26           s25bf         1   UNL       s25        26    -0.11954       32.0670 ; qtot   -2.365
        27           h26bf         1   UNL       h26        27     0.14565        1.0080 ; qtot   -2.219
        28           h27bf         1   UNL       h27        28     0.15468        1.0080 ; qtot   -2.064
        29           h28bf         1   UNL       h28        29     0.15369        1.0080 ; qtot   -1.911
        30           h29bf         1   UNL       h29        30     0.15141        1.0080 ; qtot   -1.759
        31           h30bf         1   UNL       h30        31     0.34241        1.0080 ; qtot   -1.417
        32           h31bf         1   UNL       h31        32     0.07740        1.0080 ; qtot   -1.340
        33           h32bf         1   UNL       h32        33     0.33735        1.0080 ; qtot   -1.002
        34           c33bf         1   UNL       c33        34     0.34886       12.0110 ; qtot   -0.653
        35           c34bf         1   UNL       c34        35    -0.15290       12.0110 ; qtot   -0.806
        36           c35bf         1   UNL       c35        36     0.24342       12.0110 ; qtot   -0.563
        37           n36bf         1   UNL       n36        37    -0.71265       14.0070 ; qtot   -1.275
        38           c37bf         1   UNL       c37        38     0.15896       12.0110 ; qtot   -1.117
        39           c38bf         1   UNL       c38        39    -0.11292       12.0110 ; qtot   -1.229
        40           c39bf         1   UNL       c39        40     0.14692       12.0110 ; qtot   -1.083
        41           h40bf         1   UNL       h40        41     0.05218        1.0080 ; qtot   -1.030
        42           h41bf         1   UNL       h41        42     0.05218        1.0080 ; qtot   -0.978
        43           h42bf         1   UNL       h42        43     0.04542        1.0080 ; qtot   -0.933
        44           h43bf         1   UNL       h43        44     0.04542        1.0080 ; qtot   -0.887
        45           h44bf         1   UNL       h44        45     0.06419        1.0080 ; qtot   -0.823
        46           h45bf         1   UNL       h45        46     0.06419        1.0080 ; qtot   -0.759
        47           h46bf         1   UNL       h46        47     0.03530        1.0080 ; qtot   -0.724
        48           h47bf         1   UNL       h47        48     0.03530        1.0080 ; qtot   -0.688
        49           h48bf         1   UNL       h48        49     0.03530        1.0080 ; qtot   -0.653
        50           c49bf         1   UNL       c49        50     0.67193       12.0110 ; qtot    0.019
        51           o50bf         1   UNL       o50        51    -0.60797       15.9990 ; qtot   -0.589
        52           n51bf         1   UNL       n51        52    -0.49029       14.0070 ; qtot   -1.079
        53           c52bf         1   UNL       c52        53     0.08466       12.0110 ; qtot   -0.995
        54           c53bf         1   UNL       c53        54     0.08466       12.0110 ; qtot   -0.910
        55           h54bf         1   UNL       h54        55     0.06150        1.0080 ; qtot   -0.849
        56           h55bf         1   UNL       h55        56     0.06150        1.0080 ; qtot   -0.787
        57           h56bf         1   UNL       h56        57     0.06422        1.0080 ; qtot   -0.723
        58           h57bf         1   UNL       h57        58     0.05208        1.0080 ; qtot   -0.671
        59           h58bf         1   UNL       h58        59     0.05208        1.0080 ; qtot   -0.619
        60           h59bf         1   UNL       h59        60     0.05522        1.0080 ; qtot   -0.563
        61           h60bf         1   UNL       h60        61     0.05522        1.0080 ; qtot   -0.508
        62           h61bf         1   UNL       h61        62     0.04383        1.0080 ; qtot   -0.464
        63           h62bf         1   UNL       h62        63     0.04383        1.0080 ; qtot   -0.421
        64           h63bf         1   UNL       h63        64     0.04383        1.0080 ; qtot   -0.377
        65           h64bf         1   UNL       h64        65     0.04383        1.0080 ; qtot   -0.333
        66           h65bf         1   UNL       h65        66     0.04383        1.0080 ; qtot   -0.289
        67           h66bf         1   UNL       h66        67     0.04383        1.0080 ; qtot   -0.245
        68           h67bf         1   UNL       h67        68     0.07881        1.0080 ; qtot   -0.166
        69           h68bf         1   UNL       h68        69     0.16644        1.0080 ; qtot   -0.000

[ bonds ]
;       ai        aj funct               r               k
         1         3     1        0.143004   324482.198389    ;  uncertainty r = 0.000052, k = 8.904621
         1         7     1        0.141910   356769.429736    ;  uncertainty r = 0.000048, k = 4.037477
         1        11     1        0.141790   346091.419434    ;  uncertainty r = 0.000020, k = 6.182449
         2        10     1        0.175644   197601.581201    ;  uncertainty r = 0.000025, k = 4.635831
         3         4     1        0.136038   392744.475049    ;  uncertainty r = 0.000041, k = 16.910129
         3         8     1        0.142143   380657.837793    ;  uncertainty r = 0.000038, k = 10.066802
         4         5     1        0.131988   407564.655566    ;  uncertainty r = 0.000055, k = 6.343919
         5         6     1        0.141706   311211.507520    ;  uncertainty r = 0.000182, k = 17.807084
         5        12     1        0.150092   243046.271875    ;  uncertainty r = 0.000111, k = 13.210543
         6         7     1        0.137418   376458.106934    ;  uncertainty r = 0.000069, k = 5.911514
         6        69     1        0.108669   337259.052637    ;  uncertainty r = 0.000036, k = 1.713218
         7        27     1        0.108787   333433.210596    ;  uncertainty r = 0.000018, k = 2.928704
         8         9     1        0.137745   384548.825000    ;  uncertainty r = 0.000027, k = 3.713520
         8        28     1        0.108701   337573.618750    ;  uncertainty r = 0.000019, k = 2.030239
         9        10     1        0.141637   346532.292090    ;  uncertainty r = 0.000048, k = 2.586780
         9        29     1        0.108689   335100.043262    ;  uncertainty r = 0.000017, k = 0.765050
        10        11     1        0.137771   356692.282129    ;  uncertainty r = 0.000029, k = 2.996445
        11        30     1        0.108726   335115.569824    ;  uncertainty r = 0.000009, k = 1.681423
        12        13     1        0.135872   280717.134473    ;  uncertainty r = 0.000169, k = 24.936517
        12        15     1        0.123709   683431.322559    ;  uncertainty r = 0.000061, k = 4.641055
        13        14     1        0.145650   238871.337549    ;  uncertainty r = 0.000080, k = 16.062903
        13        31     1        0.101593   411471.960986    ;  uncertainty r = 0.000055, k = 3.581487
        14        16     1        0.154163   193154.191455    ;  uncertainty r = 0.000237, k = 6.997691
        14        20     1        0.153518   200172.708447    ;  uncertainty r = 0.000086, k = 6.949998
        14        32     1        0.109368   306120.812451    ;  uncertainty r = 0.000049, k = 3.101294
        16        17     1        0.153461   198493.451978    ;  uncertainty r = 0.000128, k = 5.281574
        16        21     1        0.145732   238691.326465    ;  uncertainty r = 0.000068, k = 15.691022
        16        68     1        0.109360   306494.828955    ;  uncertainty r = 0.000054, k = 3.368977
        17        18     1        0.153721   199006.850024    ;  uncertainty r = 0.000168, k = 6.848027
        17        55     1        0.109526   310433.851465    ;  uncertainty r = 0.000043, k = 0.875064
        17        56     1        0.109526   310433.851465    ;  uncertainty r = 0.000043, k = 0.875064
        18        19     1        0.153975   202217.337109    ;  uncertainty r = 0.000087, k = 2.573046
        18        50     1        0.153156   206143.680444    ;  uncertainty r = 0.000070, k = 12.443492
        18        57     1        0.109633   309151.735352    ;  uncertainty r = 0.000051, k = 6.503762
        19        20     1        0.153317   207892.474463    ;  uncertainty r = 0.000061, k = 5.382321
        19        58     1        0.109602   308125.501074    ;  uncertainty r = 0.000021, k = 1.819146
        19        59     1        0.109602   308125.501074    ;  uncertainty r = 0.000021, k = 1.819146
        20        60     1        0.109620   309930.898096    ;  uncertainty r = 0.000025, k = 1.029525
        20        61     1        0.109620   309930.898096    ;  uncertainty r = 0.000025, k = 1.029525
        21        22     1        0.136254   291452.475586    ;  uncertainty r = 0.000129, k = 17.867731
        21        33     1        0.101616   410581.507520    ;  uncertainty r = 0.000093, k = 3.750123
        22        23     1        0.147883   259563.418848    ;  uncertainty r = 0.000125, k = 27.680344
        22        24     1        0.123538   703630.001367    ;  uncertainty r = 0.000115, k = 12.098945
        23        25     1        0.130310   434161.095312    ;  uncertainty r = 0.000085, k = 15.053236
        23        26     1        0.175563   155788.944214    ;  uncertainty r = 0.000188, k = 10.470577
        25        34     1        0.137602   299978.345996    ;  uncertainty r = 0.000211, k = 8.739575
        26        35     1        0.173396   184345.625244    ;  uncertainty r = 0.000110, k = 8.530767
        34        35     1        0.137286   397473.794482    ;  uncertainty r = 0.000034, k = 9.608965
        34        39     1        0.149948   244144.622949    ;  uncertainty r = 0.000108, k = 7.193396
        35        36     1        0.150719   237383.826465    ;  uncertainty r = 0.000089, k = 11.691948
        36        37     1        0.146397   258698.068359    ;  uncertainty r = 0.000045, k = 12.802743
        36        41     1        0.110180   303656.992139    ;  uncertainty r = 0.000048, k = 3.959665
        36        42     1        0.110180   303656.992139    ;  uncertainty r = 0.000048, k = 3.959665
        37        38     1        0.146774   246527.975830    ;  uncertainty r = 0.000088, k = 8.191406
        37        40     1        0.145874   240551.449512    ;  uncertainty r = 0.000055, k = 4.989744
        38        39     1        0.153862   211171.503149    ;  uncertainty r = 0.000061, k = 10.297044
        38        43     1        0.109933   305388.127246    ;  uncertainty r = 0.000023, k = 3.768152
        38        44     1        0.109933   305388.127246    ;  uncertainty r = 0.000023, k = 3.768152
        39        45     1        0.109729   310887.467139    ;  uncertainty r = 0.000009, k = 2.383701
        39        46     1        0.109729   310887.467139    ;  uncertainty r = 0.000009, k = 2.383701
        40        47     1        0.109858   306972.960254    ;  uncertainty r = 0.000009, k = 1.032628
        40        48     1        0.109858   306972.960254    ;  uncertainty r = 0.000009, k = 1.032628
        40        49     1        0.109858   306972.960254    ;  uncertainty r = 0.000009, k = 1.032628
        50        51     1        0.123614   736987.492969    ;  uncertainty r = 0.000035, k = 11.451192
        50        52     1        0.137582   365085.512793    ;  uncertainty r = 0.000056, k = 20.353976
        52        53     1        0.145904   250764.582275    ;  uncertainty r = 0.000013, k = 6.211512
        52        54     1        0.145904   250764.582275    ;  uncertainty r = 0.000013, k = 6.211512
        53        62     1        0.109437   311080.731982    ;  uncertainty r = 0.000014, k = 1.257584
        53        63     1        0.109437   311080.731982    ;  uncertainty r = 0.000014, k = 1.257584
        53        64     1        0.109437   311080.731982    ;  uncertainty r = 0.000014, k = 1.257584
        54        65     1        0.109437   311080.731982    ;  uncertainty r = 0.000014, k = 1.257584
        54        66     1        0.109437   311080.731982    ;  uncertainty r = 0.000014, k = 1.257584
        54        67     1        0.109437   311080.731982    ;  uncertainty r = 0.000014, k = 1.257590

[ angles ]
;       ai        aj        ak funct           theta             cth
         1         3         4     1      122.034813      554.881166    ;  uncertainty theta = 0.002338, k = 0.083452
         1         3         8     1      117.074829      422.095603    ;  uncertainty theta = 0.003514, k = 0.044029
         1         7         6     1      119.622475      565.789917    ;  uncertainty theta = 0.005252, k = 0.098151
         1         7        27     1      120.403358      277.352608    ;  uncertainty theta = 0.000704, k = 0.094261
         1        11        10     1      119.174911      507.776882    ;  uncertainty theta = 0.002756, k = 0.055803
         1        11        30     1      120.692039      272.687488    ;  uncertainty theta = 0.001784, k = 0.055153
         2        10         9     1      119.785423      452.740517    ;  uncertainty theta = 0.001003, k = 0.069834
         2        10        11     1      120.228600      441.570266    ;  uncertainty theta = 0.001562, k = 0.027287
         3         1         7     1      115.621887      438.510474    ;  uncertainty theta = 0.005565, k = 0.155530
         3         1        11     1      117.942062      430.580020    ;  uncertainty theta = 0.004108, k = 0.085813
         3         4         5     1      118.281204      448.177546    ;  uncertainty theta = 0.002257, k = 0.070142
         3         8         9     1      119.549805      531.115087    ;  uncertainty theta = 0.000930, k = 0.044312
         3         8        28     1      120.098511      271.583551    ;  uncertainty theta = 0.003241, k = 0.076260
         4         3         8     1      121.365433      499.113705    ;  uncertainty theta = 0.003746, k = 0.112287
         4         5         6     1      125.115982      615.035551    ;  uncertainty theta = 0.003670, k = 0.174878
         4         5        12     1      115.639969      417.175591    ;  uncertainty theta = 0.003005, k = 0.259640
         5         6         7     1      118.130783      487.590308    ;  uncertainty theta = 0.002834, k = 0.188890
         5         6        69     1      121.070190      259.462905    ;  uncertainty theta = 0.005052, k = 0.074817
         5        12        13     1      113.277306      432.905653    ;  uncertainty theta = 0.002918, k = 0.146940
         5        12        15     1      120.831078      488.696001    ;  uncertainty theta = 0.004467, k = 0.164101
         6         5        12     1      118.591393      356.882540    ;  uncertainty theta = 0.004810, k = 0.047171
         6         7        27     1      121.138649      276.869765    ;  uncertainty theta = 0.002067, k = 0.055722
         7         1        11     1      124.264748      462.182289    ;  uncertainty theta = 0.003170, k = 0.117159
         7         6        69     1      121.393478      286.304609    ;  uncertainty theta = 0.002137, k = 0.044128
         8         9        10     1      119.446739      513.682945    ;  uncertainty theta = 0.000865, k = 0.109775
         8         9        29     1      120.482193      281.086261    ;  uncertainty theta = 0.001222, k = 0.054711
         9         8        28     1      121.111938      275.601049    ;  uncertainty theta = 0.002701, k = 0.061176
         9        10        11     1      122.140320      394.727578    ;  uncertainty theta = 0.001798, k = 0.113752
        10         9        29     1      120.665237      285.271633    ;  uncertainty theta = 0.001844, k = 0.037760
        10        11        30     1      121.319458      287.035801    ;  uncertainty theta = 0.001313, k = 0.091167
        12        13        14     1      116.009018      440.888138    ;  uncertainty theta = 0.005994, k = 0.312324
        12        13        31     1      116.770706      350.617553    ;  uncertainty theta = 0.004694, k = 0.121476
        13        12        15     1      124.617981      802.113200    ;  uncertainty theta = 0.002267, k = 0.113252
        13        14        16     1      109.076538      583.458340    ;  uncertainty theta = 0.004863, k = 0.181843
        13        14        20     1      110.636986      632.463415    ;  uncertainty theta = 0.002040, k = 0.086976
        13        14        32     1      105.300476      447.472722    ;  uncertainty theta = 0.004207, k = 0.128611
        14        13        31     1      112.614601      311.771779    ;  uncertainty theta = 0.001488, k = 0.252743
        14        16        17     1      109.656967      543.291404    ;  uncertainty theta = 0.003196, k = 0.182204
        14        16        21     1      109.146683      584.442413    ;  uncertainty theta = 0.004622, k = 0.173858
        14        16        68     1      107.717239      383.850653    ;  uncertainty theta = 0.001765, k = 0.083403
        14        20        19     1      109.780396      550.449520    ;  uncertainty theta = 0.003491, k = 0.116853
        14        20        60     1      107.481422      382.863197    ;  uncertainty theta = 0.000870, k = 0.034003
        14        20        61     1      107.481422      382.863197    ;  uncertainty theta = 0.000870, k = 0.034003
        16        14        20     1      109.386574      551.865233    ;  uncertainty theta = 0.000986, k = 0.237382
        16        14        32     1      107.472862      382.095998    ;  uncertainty theta = 0.002525, k = 0.088543
        16        17        18     1      110.158470      537.237002    ;  uncertainty theta = 0.003364, k = 0.118913
        16        17        55     1      107.462036      385.087415    ;  uncertainty theta = 0.000668, k = 0.059043
        16        17        56     1      107.462036      385.087415    ;  uncertainty theta = 0.000668, k = 0.059043
        16        21        22     1      116.259842      438.599854    ;  uncertainty theta = 0.006695, k = 0.183209
        16        21        33     1      112.698265      315.764027    ;  uncertainty theta = 0.001508, k = 0.296876
        17        16        21     1      110.222816      630.153200    ;  uncertainty theta = 0.002135, k = 0.087453
        17        16        68     1      108.603882      408.571724    ;  uncertainty theta = 0.001775, k = 0.034676
        17        18        19     1      109.900391      583.567575    ;  uncertainty theta = 0.002330, k = 0.083135
        17        18        50     1      108.569168      489.144113    ;  uncertainty theta = 0.003757, k = 0.073146
        17        18        57     1      107.332260      401.082169    ;  uncertainty theta = 0.002516, k = 0.077903
        18        17        55     1      108.676857      396.198101    ;  uncertainty theta = 0.000795, k = 0.026396
        18        17        56     1      108.676857      396.198101    ;  uncertainty theta = 0.000795, k = 0.026396
        18        19        20     1      109.789757      580.826741    ;  uncertainty theta = 0.001891, k = 0.142184
        18        19        58     1      108.292625      386.614311    ;  uncertainty theta = 0.000735, k = 0.019139
        18        19        59     1      108.292625      386.614311    ;  uncertainty theta = 0.000735, k = 0.019139
        18        50        51     1      123.648819      547.647652    ;  uncertainty theta = 0.003749, k = 0.250532
        18        50        52     1      114.135170      399.306701    ;  uncertainty theta = 0.002339, k = 0.216014
        19        18        50     1      108.943726      496.415422    ;  uncertainty theta = 0.001979, k = 0.055108
        19        18        57     1      107.694107      403.879791    ;  uncertainty theta = 0.001685, k = 0.082263
        19        20        60     1      108.762428      400.566224    ;  uncertainty theta = 0.001510, k = 0.036687
        19        20        61     1      108.762428      400.566224    ;  uncertainty theta = 0.001510, k = 0.036687
        20        14        32     1      108.912514      410.850975    ;  uncertainty theta = 0.001579, k = 0.068352
        20        19        58     1      108.482193      402.788750    ;  uncertainty theta = 0.000884, k = 0.036541
        20        19        59     1      108.482193      402.788750    ;  uncertainty theta = 0.000884, k = 0.036541
        21        16        68     1      105.245773      446.491842    ;  uncertainty theta = 0.004278, k = 0.178016
        21        22        23     1      113.070839      435.784547    ;  uncertainty theta = 0.006920, k = 0.140238
        21        22        24     1      124.950012      804.911939    ;  uncertainty theta = 0.003994, k = 0.055585
        22        21        33     1      116.250000      347.593576    ;  uncertainty theta = 0.004441, k = 0.081627
        22        23        25     1      122.197128      370.860213    ;  uncertainty theta = 0.005964, k = 0.255742
        22        23        26     1      118.123451      287.405674    ;  uncertainty theta = 0.005808, k = 0.204925
        23        22        24     1      120.002197      453.227350    ;  uncertainty theta = 0.007890, k = 0.121396
        23        25        34     1      111.845421      637.059456    ;  uncertainty theta = 0.004719, k = 0.108197
        23        26        35     1       89.170425     1132.634133    ;  uncertainty theta = 0.004755, k = 0.314956
        25        23        26     1      116.136452      646.965173    ;  uncertainty theta = 0.002239, k = 0.246117
        25        34        35     1      115.716957      690.992937    ;  uncertainty theta = 0.003156, k = 0.158093
        25        34        39     1      124.040390      433.932787    ;  uncertainty theta = 0.004363, k = 0.201750
        26        35        34     1      109.672325      507.238336    ;  uncertainty theta = 0.002750, k = 0.124654
        26        35        36     1      124.458923      318.004972    ;  uncertainty theta = 0.003631, k = 0.249957
        34        35        36     1      122.449425      322.713122    ;  uncertainty theta = 0.004108, k = 0.373686
        34        39        38     1      106.939438      596.797522    ;  uncertainty theta = 0.003584, k = 0.044131
        34        39        45     1      108.548073      392.911220    ;  uncertainty theta = 0.001454, k = 0.086868
        34        39        46     1      108.548073      392.911220    ;  uncertainty theta = 0.001454, k = 0.086868
        35        34        39     1      120.498146      325.489963    ;  uncertainty theta = 0.004995, k = 0.174544
        35        36        37     1      109.701111      686.046080    ;  uncertainty theta = 0.001850, k = 0.201796
        35        36        41     1      108.925659      409.463193    ;  uncertainty theta = 0.001395, k = 0.154098
        35        36        42     1      108.925659      409.463193    ;  uncertainty theta = 0.001395, k = 0.154098
        36        37        38     1      108.084244      491.834927    ;  uncertainty theta = 0.003315, k = 0.091086
        36        37        40     1      107.580322      510.743273    ;  uncertainty theta = 0.002764, k = 0.057722
        37        36        41     1      109.358154      448.409487    ;  uncertainty theta = 0.001850, k = 0.074310
        37        36        42     1      109.358154      448.409487    ;  uncertainty theta = 0.001850, k = 0.074310
        37        38        39     1      112.487526      700.788206    ;  uncertainty theta = 0.002677, k = 0.118016
        37        38        43     1      108.920166      453.721493    ;  uncertainty theta = 0.001526, k = 0.064884
        37        38        44     1      108.920166      453.721493    ;  uncertainty theta = 0.001526, k = 0.064884
        37        40        47     1      110.438461      450.024231    ;  uncertainty theta = 0.001821, k = 0.029766
        37        40        48     1      110.438461      450.024231    ;  uncertainty theta = 0.001821, k = 0.029766
        37        40        49     1      110.438461      450.024231    ;  uncertainty theta = 0.001821, k = 0.029766
        38        37        40     1      108.245483      523.945384    ;  uncertainty theta = 0.002945, k = 0.105030
        38        39        45     1      108.704140      394.566535    ;  uncertainty theta = 0.001154, k = 0.056791
        38        39        46     1      108.704140      394.566535    ;  uncertainty theta = 0.001154, k = 0.056791
        39        38        43     1      108.660522      413.983038    ;  uncertainty theta = 0.001451, k = 0.079858
        39        38        44     1      108.660522      413.983038    ;  uncertainty theta = 0.001451, k = 0.079858
        41        36        42     1      104.710770      316.430897    ;  uncertainty theta = 0.002647, k = 0.058044
        43        38        44     1      105.686386      320.062785    ;  uncertainty theta = 0.001993, k = 0.069558
        45        39        46     1      105.018166      307.701164    ;  uncertainty theta = 0.001306, k = 0.028790
        47        40        48     1      106.707680      321.292396    ;  uncertainty theta = 0.002211, k = 0.028957
        47        40        49     1      106.707680      321.292396    ;  uncertainty theta = 0.002211, k = 0.028957
        48        40        49     1      106.707680      321.292396    ;  uncertainty theta = 0.002211, k = 0.028957
        50        18        57     1      106.313622      362.200292    ;  uncertainty theta = 0.002423, k = 0.146630
        50        52        53     1      116.622971      385.561065    ;  uncertainty theta = 0.001770, k = 0.124804
        50        52        54     1      116.622971      385.561065    ;  uncertainty theta = 0.001770, k = 0.124804
        51        50        52     1      123.396584      724.695474    ;  uncertainty theta = 0.001503, k = 0.174408
        52        53        62     1      109.352982      479.364486    ;  uncertainty theta = 0.001224, k = 0.042687
        52        53        63     1      109.352982      479.364486    ;  uncertainty theta = 0.001224, k = 0.042687
        52        53        64     1      109.352982      479.364486    ;  uncertainty theta = 0.001224, k = 0.042687
        52        54        65     1      109.352982      479.364486    ;  uncertainty theta = 0.001224, k = 0.042687
        52        54        66     1      109.352982      479.364486    ;  uncertainty theta = 0.001224, k = 0.042687
        52        54        67     1      109.352982      479.364486    ;  uncertainty theta = 0.001224, k = 0.042687
        53        52        54     1      118.428368      428.731644    ;  uncertainty theta = 0.003391, k = 0.223109
        55        17        56     1      105.326035      326.596294    ;  uncertainty theta = 0.002223, k = 0.051835
        58        19        59     1      104.655197      318.642921    ;  uncertainty theta = 0.002537, k = 0.034949
        60        20        61     1      105.087135      316.700154    ;  uncertainty theta = 0.002326, k = 0.045638
        62        53        63     1      106.824196      329.099123    ;  uncertainty theta = 0.001131, k = 0.027019
        62        53        64     1      106.824196      329.099123    ;  uncertainty theta = 0.001131, k = 0.027019
        63        53        64     1      106.824196      329.099123    ;  uncertainty theta = 0.001131, k = 0.027019
        65        54        66     1      106.824196      329.099123    ;  uncertainty theta = 0.001131, k = 0.027019
        65        54        67     1      106.824196      329.099123    ;  uncertainty theta = 0.001131, k = 0.027019
        66        54        67     1      106.824196      329.099123    ;  uncertainty theta = 0.001131, k = 0.027019

[ dihedrals ] ; propers for gromacs 4.5 or higher, use funct 9
;       ai        aj        ak        al funct           phase               k        pn
         1         3         4         5     9        0.000000       -0.032923         1    ;  uncertainty k = 0.763439
         1         3         4         5     9      180.000000       11.734120         2    ;  uncertainty k = 0.344828
         1         3         4         5     9        0.000000        1.661019         3    ;  uncertainty k = 0.390679
         1         3         4         5     9      180.000000        1.277058         4    ;  uncertainty k = 0.352927
         1         3         8         9     9        0.000000        0.287417         1    ;  uncertainty k = 0.298579
         1         3         8         9     9      180.000000        8.826796         2    ;  uncertainty k = 0.518840
         1         3         8         9     9        0.000000       -0.312669         3    ;  uncertainty k = 0.296395
         1         3         8         9     9      180.000000        1.074186         4    ;  uncertainty k = 0.286996
         1         3         8        28     9        0.000000       -0.195640         1    ;  uncertainty k = 0.575167
         1         3         8        28     9      180.000000        5.365290         2    ;  uncertainty k = 0.476642
         1         3         8        28     9        0.000000        1.161282         3    ;  uncertainty k = 0.238413
         1         3         8        28     9      180.000000        1.097150         4    ;  uncertainty k = 0.202276
         1         7         6         5     9        0.000000       -0.123594         1    ;  uncertainty k = 0.248347
         1         7         6         5     9      180.000000       15.440830         2    ;  uncertainty k = 0.115220
         1         7         6         5     9        0.000000       -0.493429         3    ;  uncertainty k = 0.479612
         1         7         6         5     9      180.000000        0.802266         4    ;  uncertainty k = 0.231007
         1         7         6        69     9        0.000000        0.201762         1    ;  uncertainty k = 0.337065
         1         7         6        69     9      180.000000       10.748412         2    ;  uncertainty k = 0.305287
         1         7         6        69     9        0.000000        1.479175         3    ;  uncertainty k = 0.443887
         1         7         6        69     9      180.000000        1.803833         4    ;  uncertainty k = 0.273467
         1        11        10         2     9        0.000000       -0.041157         1    ;  uncertainty k = 0.166461
         1        11        10         2     9      180.000000       12.019794         2    ;  uncertainty k = 0.434484
         1        11        10         2     9        0.000000        1.616432         3    ;  uncertainty k = 0.132047
         1        11        10         2     9      180.000000        1.596703         4    ;  uncertainty k = 0.286912
         1        11        10         9     9        0.000000       -0.000951         1    ;  uncertainty k = 0.340972
         1        11        10         9     9      180.000000       11.417432         2    ;  uncertainty k = 0.422813
         1        11        10         9     9        0.000000        0.136111         3    ;  uncertainty k = 0.483624
         1        11        10         9     9      180.000000        1.174709         4    ;  uncertainty k = 0.407902
         2        10         9         8     9        0.000000        0.100640         1    ;  uncertainty k = 0.128270
         2        10         9         8     9      180.000000        8.050208         2    ;  uncertainty k = 0.702488
         2        10         9         8     9        0.000000        1.416424         3    ;  uncertainty k = 0.564122
         2        10         9         8     9      180.000000        1.524786         4    ;  uncertainty k = 0.243048
         2        10         9        29     9        0.000000        0.082577         1    ;  uncertainty k = 0.263686
         2        10         9        29     9      180.000000        6.771393         2    ;  uncertainty k = 0.219083
         2        10         9        29     9        0.000000        0.642937         3    ;  uncertainty k = 0.312284
         2        10         9        29     9      180.000000        0.896757         4    ;  uncertainty k = 0.168327
         2        10        11        30     9        0.000000       -0.328760         1    ;  uncertainty k = 0.431801
         2        10        11        30     9      180.000000        8.640324         2    ;  uncertainty k = 0.432905
         2        10        11        30     9        0.000000        0.810717         3    ;  uncertainty k = 0.229631
         2        10        11        30     9      180.000000        1.089230         4    ;  uncertainty k = 0.269724
         3         1         7         6     9        0.000000        0.150631         1    ;  uncertainty k = 0.341812
         3         1         7         6     9      180.000000       10.107418         2    ;  uncertainty k = 0.320639
         3         1         7         6     9        0.000000       -0.458941         3    ;  uncertainty k = 0.210332
         3         1         7         6     9      180.000000        1.133330         4    ;  uncertainty k = 0.167827
         3         1         7        27     9        0.000000       -0.411284         1    ;  uncertainty k = 1.050592
         3         1         7        27     9      180.000000        6.266042         2    ;  uncertainty k = 0.638949
         3         1         7        27     9        0.000000        1.014020         3    ;  uncertainty k = 0.161759
         3         1         7        27     9      180.000000        1.089502         4    ;  uncertainty k = 0.222139
         3         1        11        10     9        0.000000       -0.128554         1    ;  uncertainty k = 0.321048
         3         1        11        10     9      180.000000       10.679454         2    ;  uncertainty k = 0.457456
         3         1        11        10     9        0.000000       -0.232041         3    ;  uncertainty k = 0.109560
         3         1        11        10     9      180.000000        1.217139         4    ;  uncertainty k = 0.163968
         3         1        11        30     9        0.000000       -0.227076         1    ;  uncertainty k = 0.701480
         3         1        11        30     9      180.000000        6.414454         2    ;  uncertainty k = 0.731345
         3         1        11        30     9        0.000000        1.148457         3    ;  uncertainty k = 0.162681
         3         1        11        30     9      180.000000        1.238981         4    ;  uncertainty k = 0.248220
         3         4         5         6     9        0.000000       -0.118119         1    ;  uncertainty k = 0.151165
         3         4         5         6     9      180.000000       15.191067         2    ;  uncertainty k = 0.299182
         3         4         5         6     9        0.000000        1.802534         3    ;  uncertainty k = 0.388519
         3         4         5         6     9      180.000000        1.551296         4    ;  uncertainty k = 0.245871
         3         4         5        12     9        0.000000        0.470215         1    ;  uncertainty k = 1.406600
         3         4         5        12     9      180.000000       15.114495         2    ;  uncertainty k = 0.770609
         3         4         5        12     9        0.000000        2.668463         3    ;  uncertainty k = 0.447293
         3         4         5        12     9      180.000000        1.805391         4    ;  uncertainty k = 0.481352
         3         8         9        10     9        0.000000       -0.096324         1    ;  uncertainty k = 0.155712
         3         8         9        10     9      180.000000       16.224669         2    ;  uncertainty k = 0.080296
         3         8         9        10     9        0.000000       -0.289826         3    ;  uncertainty k = 0.517766
         3         8         9        10     9      180.000000        0.955567         4    ;  uncertainty k = 0.224139
         3         8         9        29     9        0.000000        0.034134         1    ;  uncertainty k = 0.309268
         3         8         9        29     9      180.000000       10.421141         2    ;  uncertainty k = 0.318500
         3         8         9        29     9        0.000000        1.366604         3    ;  uncertainty k = 0.169482
         3         8         9        29     9      180.000000        1.660907         4    ;  uncertainty k = 0.182418
         4         3         1         7     9        0.000000        0.098911         1    ;  uncertainty k = 0.447442
         4         3         1         7     9      180.000000        7.183639         2    ;  uncertainty k = 0.686437
         4         3         1         7     9        0.000000        0.189704         3    ;  uncertainty k = 0.181694
         4         3         1         7     9      180.000000        1.435161         4    ;  uncertainty k = 0.281146
         4         3         1        11     9        0.000000        0.017258         1    ;  uncertainty k = 0.358925
         4         3         1        11     9      180.000000        7.215498         2    ;  uncertainty k = 0.621282
         4         3         1        11     9        0.000000        0.158639         3    ;  uncertainty k = 0.191145
         4         3         1        11     9      180.000000        1.431519         4    ;  uncertainty k = 0.266824
         4         3         8         9     9        0.000000        0.297636         1    ;  uncertainty k = 0.427977
         4         3         8         9     9      180.000000        9.096308         2    ;  uncertainty k = 0.430407
         4         3         8         9     9        0.000000        0.522886         3    ;  uncertainty k = 0.198688
         4         3         8         9     9      180.000000        1.415834         4    ;  uncertainty k = 0.277726
         4         3         8        28     9        0.000000        0.009303         1    ;  uncertainty k = 0.273588
         4         3         8        28     9      180.000000        7.229055         2    ;  uncertainty k = 0.562980
         4         3         8        28     9        0.000000        1.043870         3    ;  uncertainty k = 0.292750
         4         3         8        28     9      180.000000        1.210007         4    ;  uncertainty k = 0.177714
         4         5         6         7     9        0.000000       -0.164218         1    ;  uncertainty k = 0.152875
         4         5         6         7     9      180.000000        9.064728         2    ;  uncertainty k = 0.362024
         4         5         6         7     9        0.000000       -0.163027         3    ;  uncertainty k = 0.400988
         4         5         6         7     9      180.000000        1.220964         4    ;  uncertainty k = 0.175501
         4         5         6        69     9        0.000000       -0.073906         1    ;  uncertainty k = 0.325707
         4         5         6        69     9      180.000000        6.451120         2    ;  uncertainty k = 0.541938
         4         5         6        69     9        0.000000        0.789898         3    ;  uncertainty k = 0.152691
         4         5         6        69     9      180.000000        1.533398         4    ;  uncertainty k = 0.243697
         4         5        12        13     9        0.000000        2.855350         1    ;  uncertainty k = 1.810414
         4         5        12        13     9      180.000000        3.184360         2    ;  uncertainty k = 0.499979
         4         5        12        13     9        0.000000       -0.260809         3    ;  uncertainty k = 0.459393
         4         5        12        13     9      180.000000        0.166876         4    ;  uncertainty k = 0.144598
         4         5        12        15     9        0.000000       -3.597183         1    ;  uncertainty k = 1.029169
         4         5        12        15     9      180.000000        3.431483         2    ;  uncertainty k = 0.481470
         4         5        12        15     9        0.000000        0.513727         3    ;  uncertainty k = 0.292853
         4         5        12        15     9      180.000000       -0.005066         4    ;  uncertainty k = 0.090375
         5         4         3         8     9        0.000000        0.531585         1    ;  uncertainty k = 0.609475
         5         4         3         8     9      180.000000       12.254769         2    ;  uncertainty k = 0.275730
         5         4         3         8     9        0.000000        2.437015         3    ;  uncertainty k = 0.174153
         5         4         3         8     9      180.000000        1.232884         4    ;  uncertainty k = 0.140516
         5         6         7        27     9        0.000000       -0.204457         1    ;  uncertainty k = 0.109954
         5         6         7        27     9      180.000000        9.657511         2    ;  uncertainty k = 0.529500
         5         6         7        27     9        0.000000        1.182792         3    ;  uncertainty k = 0.234011
         5         6         7        27     9      180.000000        1.588148         4    ;  uncertainty k = 0.242412
         5        12        13        14     9        0.000000        3.223700         1    ;  uncertainty k = 1.183788
         5        12        13        14     9      180.000000       13.420890         2    ;  uncertainty k = 0.281466
         5        12        13        14     9        0.000000        1.740862         3    ;  uncertainty k = 0.220909
         5        12        13        14     9      180.000000       -1.647074         4    ;  uncertainty k = 0.424581
         5        12        13        31     9        0.000000       -0.171012         1    ;  uncertainty k = 0.646806
         5        12        13        31     9      180.000000        7.719087         2    ;  uncertainty k = 0.698381
         5        12        13        31     9        0.000000        2.366534         3    ;  uncertainty k = 0.150997
         5        12        13        31     9      180.000000        0.101968         4    ;  uncertainty k = 0.405103
         6         5        12        13     9        0.000000       -0.214059         1    ;  uncertainty k = 1.211957
         6         5        12        13     9      180.000000        2.993735         2    ;  uncertainty k = 0.251477
         6         5        12        13     9        0.000000        0.649186         3    ;  uncertainty k = 0.178555
         6         5        12        13     9      180.000000       -0.195958         4    ;  uncertainty k = 0.161542
         6         5        12        15     9        0.000000       -1.854581         1    ;  uncertainty k = 0.587003
         6         5        12        15     9      180.000000        3.185912         2    ;  uncertainty k = 0.359612
         6         5        12        15     9        0.000000        0.330812         3    ;  uncertainty k = 0.344825
         6         5        12        15     9      180.000000       -0.021700         4    ;  uncertainty k = 0.085645
         6         7         1        11     9        0.000000       -0.046974         1    ;  uncertainty k = 0.524760
         6         7         1        11     9      180.000000        9.116676         2    ;  uncertainty k = 0.242515
         6         7         1        11     9        0.000000        0.395180         3    ;  uncertainty k = 0.324534
         6         7         1        11     9      180.000000        1.345250         4    ;  uncertainty k = 0.144493
         7         1         3         8     9        0.000000        0.010084         1    ;  uncertainty k = 0.181089
         7         1         3         8     9      180.000000        6.412931         2    ;  uncertainty k = 0.729856
         7         1         3         8     9        0.000000        0.066804         3    ;  uncertainty k = 0.171239
         7         1         3         8     9      180.000000        1.400378         4    ;  uncertainty k = 0.305484
         7         1        11        10     9        0.000000       -0.087590         1    ;  uncertainty k = 0.415034
         7         1        11        10     9      180.000000        9.088811         2    ;  uncertainty k = 0.590161
         7         1        11        10     9        0.000000        0.523643         3    ;  uncertainty k = 0.400913
         7         1        11        10     9      180.000000        1.482047         4    ;  uncertainty k = 0.175144
         7         1        11        30     9        0.000000       -0.100738         1    ;  uncertainty k = 0.234312
         7         1        11        30     9      180.000000        6.219394         2    ;  uncertainty k = 0.494844
         7         1        11        30     9        0.000000        1.228917         3    ;  uncertainty k = 0.223203
         7         1        11        30     9      180.000000        1.236719         4    ;  uncertainty k = 0.130069
         7         6         5        12     9        0.000000        0.117214         1    ;  uncertainty k = 0.548095
         7         6         5        12     9      180.000000        6.616880         2    ;  uncertainty k = 0.699047
         7         6         5        12     9        0.000000        1.040801         3    ;  uncertainty k = 0.182770
         7         6         5        12     9      180.000000        1.453236         4    ;  uncertainty k = 0.117905
         8         3         1        11     9        0.000000       -0.050934         1    ;  uncertainty k = 0.288463
         8         3         1        11     9      180.000000        6.360870         2    ;  uncertainty k = 0.640597
         8         3         1        11     9        0.000000        0.112526         3    ;  uncertainty k = 0.275599
         8         3         1        11     9      180.000000        1.403465         4    ;  uncertainty k = 0.299810
         8         9        10        11     9        0.000000       -0.003528         1    ;  uncertainty k = 0.343336
         8         9        10        11     9      180.000000        7.713567         2    ;  uncertainty k = 0.501698
         8         9        10        11     9        0.000000       -0.011365         3    ;  uncertainty k = 0.472164
         8         9        10        11     9      180.000000        1.141078         4    ;  uncertainty k = 0.303796
         9        10        11        30     9        0.000000        0.108036         1    ;  uncertainty k = 0.189685
         9        10        11        30     9      180.000000        7.405249         2    ;  uncertainty k = 0.501795
         9        10        11        30     9        0.000000        1.570248         3    ;  uncertainty k = 0.329995
         9        10        11        30     9      180.000000        1.736305         4    ;  uncertainty k = 0.109234
        10         9         8        28     9        0.000000        0.076799         1    ;  uncertainty k = 0.146233
        10         9         8        28     9      180.000000        9.401985         2    ;  uncertainty k = 0.350951
        10         9         8        28     9        0.000000        1.507806         3    ;  uncertainty k = 0.328081
        10         9         8        28     9      180.000000        2.026307         4    ;  uncertainty k = 0.345692
        11         1         7        27     9        0.000000       -0.311218         1    ;  uncertainty k = 0.413478
        11         1         7        27     9      180.000000        6.109398         2    ;  uncertainty k = 0.377413
        11         1         7        27     9        0.000000        1.140517         3    ;  uncertainty k = 0.347281
        11         1         7        27     9      180.000000        1.074622         4    ;  uncertainty k = 0.231613
        11        10         9        29     9        0.000000       -0.108835         1    ;  uncertainty k = 0.219821
        11        10         9        29     9      180.000000        5.269346         2    ;  uncertainty k = 0.610441
        11        10         9        29     9        0.000000        1.201602         3    ;  uncertainty k = 0.220528
        11        10         9        29     9      180.000000        1.338508         4    ;  uncertainty k = 0.134107
        12         5         6        69     9        0.000000       -0.362555         1    ;  uncertainty k = 1.238895
        12         5         6        69     9      180.000000        6.304739         2    ;  uncertainty k = 0.479682
        12         5         6        69     9        0.000000        0.931951         3    ;  uncertainty k = 0.225230
        12         5         6        69     9      180.000000        0.882283         4    ;  uncertainty k = 0.344917
        12        13        14        16     9        0.000000        0.987829         1    ;  uncertainty k = 0.401891
        12        13        14        16     9      180.000000        0.123148         2    ;  uncertainty k = 0.274739
        12        13        14        16     9        0.000000       -0.144694         3    ;  uncertainty k = 0.153334
        12        13        14        16     9      180.000000        0.522857         4    ;  uncertainty k = 0.321880
        12        13        14        20     9        0.000000        0.478862         1    ;  uncertainty k = 0.222347
        12        13        14        20     9      180.000000        0.199006         2    ;  uncertainty k = 0.329349
        12        13        14        20     9        0.000000        0.109403         3    ;  uncertainty k = 0.099455
        12        13        14        20     9      180.000000        0.377208         4    ;  uncertainty k = 0.126518
        12        13        14        32     9        0.000000        1.179093         1    ;  uncertainty k = 0.364410
        12        13        14        32     9      180.000000       -0.417836         2    ;  uncertainty k = 0.253212
        12        13        14        32     9        0.000000        0.097184         3    ;  uncertainty k = 0.160993
        12        13        14        32     9      180.000000        0.191319         4    ;  uncertainty k = 0.075193
        13        14        16        17     9        0.000000       -2.918335         1    ;  uncertainty k = 0.997554
        13        14        16        17     9      180.000000       -0.182902         2    ;  uncertainty k = 0.377961
        13        14        16        17     9        0.000000        0.570138         3    ;  uncertainty k = 0.177409
        13        14        16        17     9      180.000000       -0.036220         4    ;  uncertainty k = 0.150354
        13        14        16        21     9        0.000000        0.283423         1    ;  uncertainty k = 1.034699
        13        14        16        21     9      180.000000       -1.184266         2    ;  uncertainty k = 0.713270
        13        14        16        21     9        0.000000        0.385776         3    ;  uncertainty k = 0.375391
        13        14        16        21     9      180.000000       -0.049701         4    ;  uncertainty k = 0.380769
        13        14        16        68     9        0.000000        0.060463         1    ;  uncertainty k = 1.186630
        13        14        16        68     9      180.000000       -1.400481         2    ;  uncertainty k = 0.453231
        13        14        16        68     9        0.000000        0.502875         3    ;  uncertainty k = 0.259814
        13        14        16        68     9      180.000000       -0.268990         4    ;  uncertainty k = 0.119593
        13        14        20        19     9        0.000000       -4.336871         1    ;  uncertainty k = 0.840780
        13        14        20        19     9      180.000000        0.398085         2    ;  uncertainty k = 0.240713
        13        14        20        19     9        0.000000        0.865312         3    ;  uncertainty k = 0.111049
        13        14        20        19     9      180.000000       -0.149437         4    ;  uncertainty k = 0.103273
        13        14        20        60     9        0.000000       -0.337660         1    ;  uncertainty k = 0.690554
        13        14        20        60     9      180.000000       -1.386409         2    ;  uncertainty k = 0.331657
        13        14        20        60     9        0.000000        0.948602         3    ;  uncertainty k = 0.108322
        13        14        20        60     9      180.000000       -0.292234         4    ;  uncertainty k = 0.076832
        13        14        20        61     9        0.000000       -0.337660         1    ;  uncertainty k = 0.690554
        13        14        20        61     9      180.000000       -1.386409         2    ;  uncertainty k = 0.331657
        13        14        20        61     9        0.000000        0.948602         3    ;  uncertainty k = 0.108322
        13        14        20        61     9      180.000000       -0.292234         4    ;  uncertainty k = 0.076832
        14        13        12        15     9        0.000000        4.340660         1    ;  uncertainty k = 1.531557
        14        13        12        15     9      180.000000       14.634509         2    ;  uncertainty k = 0.204918
        14        13        12        15     9        0.000000        0.227949         3    ;  uncertainty k = 0.092136
        14        13        12        15     9      180.000000       -0.534222         4    ;  uncertainty k = 0.141946
        14        16        17        18     9        0.000000       -1.422268         1    ;  uncertainty k = 2.687840
        14        16        17        18     9      180.000000       -1.372244         2    ;  uncertainty k = 1.266315
        14        16        17        18     9        0.000000        0.520722         3    ;  uncertainty k = 0.498083
        14        16        17        18     9      180.000000       -1.215413         4    ;  uncertainty k = 0.210469
        14        16        17        55     9        0.000000       -0.883136         1    ;  uncertainty k = 0.508196
        14        16        17        55     9      180.000000       -0.614929         2    ;  uncertainty k = 0.175084
        14        16        17        55     9        0.000000        0.124594         3    ;  uncertainty k = 0.064034
        14        16        17        55     9      180.000000       -0.135751         4    ;  uncertainty k = 0.114004
        14        16        17        56     9        0.000000       -0.883136         1    ;  uncertainty k = 0.508196
        14        16        17        56     9      180.000000       -0.614929         2    ;  uncertainty k = 0.175084
        14        16        17        56     9        0.000000        0.124594         3    ;  uncertainty k = 0.064034
        14        16        17        56     9      180.000000       -0.135751         4    ;  uncertainty k = 0.114004
        14        16        21        22     9        0.000000        0.794846         1    ;  uncertainty k = 0.604396
        14        16        21        22     9      180.000000        0.224272         2    ;  uncertainty k = 0.185685
        14        16        21        22     9        0.000000       -0.089245         3    ;  uncertainty k = 0.110265
        14        16        21        22     9      180.000000        0.458816         4    ;  uncertainty k = 0.210243
        14        16        21        33     9        0.000000        2.683155         1    ;  uncertainty k = 0.609086
        14        16        21        33     9      180.000000       -1.562794         2    ;  uncertainty k = 0.401578
        14        16        21        33     9        0.000000        0.519888         3    ;  uncertainty k = 0.250676
        14        16        21        33     9      180.000000        0.165823         4    ;  uncertainty k = 0.146369
        14        20        19        18     9        0.000000       -5.573238         1    ;  uncertainty k = 0.727025
        14        20        19        18     9      180.000000       -1.078323         2    ;  uncertainty k = 0.651288
        14        20        19        18     9        0.000000        1.425236         3    ;  uncertainty k = 0.144828
        14        20        19        18     9      180.000000       -1.198239         4    ;  uncertainty k = 0.215276
        14        20        19        58     9        0.000000       -1.161760         1    ;  uncertainty k = 0.416585
        14        20        19        58     9      180.000000       -0.677761         2    ;  uncertainty k = 0.277437
        14        20        19        58     9        0.000000        0.404336         3    ;  uncertainty k = 0.184873
        14        20        19        58     9      180.000000       -0.085548         4    ;  uncertainty k = 0.032870
        14        20        19        59     9        0.000000       -1.161760         1    ;  uncertainty k = 0.416585
        14        20        19        59     9      180.000000       -0.677761         2    ;  uncertainty k = 0.277437
        14        20        19        59     9        0.000000        0.404336         3    ;  uncertainty k = 0.184873
        14        20        19        59     9      180.000000       -0.085548         4    ;  uncertainty k = 0.032870
        15        12        13        31     9        0.000000        2.072765         1    ;  uncertainty k = 0.500250
        15        12        13        31     9      180.000000       15.573229         2    ;  uncertainty k = 0.383989
        15        12        13        31     9        0.000000        1.920660         3    ;  uncertainty k = 0.303302
        15        12        13        31     9      180.000000       -0.283478         4    ;  uncertainty k = 0.207202
        16        14        13        31     9        0.000000        2.664231         1    ;  uncertainty k = 0.470301
        16        14        13        31     9      180.000000       -1.455021         2    ;  uncertainty k = 0.295081
        16        14        13        31     9        0.000000        0.488034         3    ;  uncertainty k = 0.245902
        16        14        13        31     9      180.000000        0.134935         4    ;  uncertainty k = 0.145140
        16        14        20        19     9        0.000000       -4.769725         1    ;  uncertainty k = 1.415166
        16        14        20        19     9      180.000000        0.201537         2    ;  uncertainty k = 0.751947
        16        14        20        19     9        0.000000        0.925807         3    ;  uncertainty k = 0.341424
        16        14        20        19     9      180.000000       -1.207936         4    ;  uncertainty k = 0.157739
        16        14        20        60     9        0.000000       -0.721620         1    ;  uncertainty k = 0.641095
        16        14        20        60     9      180.000000       -0.679473         2    ;  uncertainty k = 0.270082
        16        14        20        60     9        0.000000        0.104003         3    ;  uncertainty k = 0.043100
        16        14        20        60     9      180.000000       -0.120906         4    ;  uncertainty k = 0.094153
        16        14        20        61     9        0.000000       -0.721620         1    ;  uncertainty k = 0.641095
        16        14        20        61     9      180.000000       -0.679473         2    ;  uncertainty k = 0.270082
        16        14        20        61     9        0.000000        0.104003         3    ;  uncertainty k = 0.043100
        16        14        20        61     9      180.000000       -0.120906         4    ;  uncertainty k = 0.094153
        16        17        18        19     9        0.000000       -3.684684         1    ;  uncertainty k = 1.555404
        16        17        18        19     9      180.000000       -0.286572         2    ;  uncertainty k = 0.574153
        16        17        18        19     9        0.000000        0.981635         3    ;  uncertainty k = 0.134172
        16        17        18        19     9      180.000000       -1.149549         4    ;  uncertainty k = 0.220596
        16        17        18        50     9        0.000000       -1.988663         1    ;  uncertainty k = 0.821936
        16        17        18        50     9      180.000000       -0.960549         2    ;  uncertainty k = 0.272982
        16        17        18        50     9        0.000000        0.443546         3    ;  uncertainty k = 0.317502
        16        17        18        50     9      180.000000        0.183458         4    ;  uncertainty k = 0.094088
        16        17        18        57     9        0.000000       -1.929217         1    ;  uncertainty k = 0.461104
        16        17        18        57     9      180.000000       -0.447748         2    ;  uncertainty k = 0.220193
        16        17        18        57     9        0.000000        0.087566         3    ;  uncertainty k = 0.087859
        16        17        18        57     9      180.000000       -0.164482         4    ;  uncertainty k = 0.141866
        16        21        22        23     9        0.000000        3.958068         1    ;  uncertainty k = 1.380043
        16        21        22        23     9      180.000000       12.511831         2    ;  uncertainty k = 0.156026
        16        21        22        23     9        0.000000        1.263553         3    ;  uncertainty k = 0.259475
        16        21        22        23     9      180.000000       -1.435052         4    ;  uncertainty k = 0.493362
        16        21        22        24     9        0.000000        4.206341         1    ;  uncertainty k = 1.055487
        16        21        22        24     9      180.000000       13.261930         2    ;  uncertainty k = 0.104052
        16        21        22        24     9        0.000000        0.422296         3    ;  uncertainty k = 0.282045
        16        21        22        24     9      180.000000       -0.345763         4    ;  uncertainty k = 0.133307
        17        16        14        20     9        0.000000       -1.470264         1    ;  uncertainty k = 2.461753
        17        16        14        20     9      180.000000        0.524671         2    ;  uncertainty k = 0.969946
        17        16        14        20     9        0.000000        0.425296         3    ;  uncertainty k = 0.508322
        17        16        14        20     9      180.000000       -1.120347         4    ;  uncertainty k = 0.264941
        17        16        14        32     9        0.000000       -1.280058         1    ;  uncertainty k = 0.301450
        17        16        14        32     9      180.000000       -0.208066         2    ;  uncertainty k = 0.248022
        17        16        14        32     9        0.000000       -0.234106         3    ;  uncertainty k = 0.060789
        17        16        14        32     9      180.000000       -0.145743         4    ;  uncertainty k = 0.047964
        17        16        21        22     9        0.000000        0.364606         1    ;  uncertainty k = 0.383608
        17        16        21        22     9      180.000000        0.211641         2    ;  uncertainty k = 0.299414
        17        16        21        22     9        0.000000        0.181029         3    ;  uncertainty k = 0.072944
        17        16        21        22     9      180.000000        0.342393         4    ;  uncertainty k = 0.127149
        17        16        21        33     9        0.000000        0.945683         1    ;  uncertainty k = 0.464115
        17        16        21        33     9      180.000000       -0.514672         2    ;  uncertainty k = 0.347973
        17        16        21        33     9        0.000000        0.327272         3    ;  uncertainty k = 0.178732
        17        16        21        33     9      180.000000        0.059847         4    ;  uncertainty k = 0.085826
        17        18        19        20     9        0.000000       -5.487573         1    ;  uncertainty k = 0.618648
        17        18        19        20     9      180.000000        0.628450         2    ;  uncertainty k = 0.548060
        17        18        19        20     9        0.000000        1.367560         3    ;  uncertainty k = 0.173350
        17        18        19        20     9      180.000000       -1.033143         4    ;  uncertainty k = 0.273102
        17        18        19        58     9        0.000000       -1.226844         1    ;  uncertainty k = 0.266748
        17        18        19        58     9      180.000000       -0.345485         2    ;  uncertainty k = 0.101300
        17        18        19        58     9        0.000000        0.394880         3    ;  uncertainty k = 0.108227
        17        18        19        58     9      180.000000       -0.070781         4    ;  uncertainty k = 0.048007
        17        18        19        59     9        0.000000       -1.226844         1    ;  uncertainty k = 0.266748
        17        18        19        59     9      180.000000       -0.345485         2    ;  uncertainty k = 0.101300
        17        18        19        59     9        0.000000        0.394880         3    ;  uncertainty k = 0.108227
        17        18        19        59     9      180.000000       -0.070781         4    ;  uncertainty k = 0.048007
        17        18        50        51     9        0.000000       -1.170185         1    ;  uncertainty k = 0.334655
        17        18        50        51     9      180.000000        4.880266         2    ;  uncertainty k = 0.323686
        17        18        50        51     9        0.000000        1.279706         3    ;  uncertainty k = 0.118363
        17        18        50        51     9      180.000000        0.575624         4    ;  uncertainty k = 0.083005
        17        18        50        52     9        0.000000       -1.631697         1    ;  uncertainty k = 0.279350
        17        18        50        52     9      180.000000        3.392199         2    ;  uncertainty k = 0.510159
        17        18        50        52     9        0.000000        0.814553         3    ;  uncertainty k = 0.127255
        17        18        50        52     9      180.000000        0.128487         4    ;  uncertainty k = 0.053904
        18        17        16        21     9        0.000000       -2.824384         1    ;  uncertainty k = 0.488217
        18        17        16        21     9      180.000000       -0.460507         2    ;  uncertainty k = 0.536155
        18        17        16        21     9        0.000000        0.759551         3    ;  uncertainty k = 0.189386
        18        17        16        21     9      180.000000       -0.140203         4    ;  uncertainty k = 0.174781
        18        17        16        68     9        0.000000       -0.730287         1    ;  uncertainty k = 0.498293
        18        17        16        68     9      180.000000       -0.792172         2    ;  uncertainty k = 0.456680
        18        17        16        68     9        0.000000       -0.041965         3    ;  uncertainty k = 0.196130
        18        17        16        68     9      180.000000       -0.091310         4    ;  uncertainty k = 0.082273
        18        19        20        60     9        0.000000       -1.242829         1    ;  uncertainty k = 0.333977
        18        19        20        60     9      180.000000       -0.548741         2    ;  uncertainty k = 0.201763
        18        19        20        60     9        0.000000        0.486940         3    ;  uncertainty k = 0.161944
        18        19        20        60     9      180.000000       -0.063210         4    ;  uncertainty k = 0.051028
        18        19        20        61     9        0.000000       -1.242829         1    ;  uncertainty k = 0.333977
        18        19        20        61     9      180.000000       -0.548741         2    ;  uncertainty k = 0.201763
        18        19        20        61     9        0.000000        0.486940         3    ;  uncertainty k = 0.161944
        18        19        20        61     9      180.000000       -0.063210         4    ;  uncertainty k = 0.051028
        18        50        52        53     9        0.000000        9.050821         1    ;  uncertainty k = 0.304912
        18        50        52        53     9      180.000000        6.374692         2    ;  uncertainty k = 0.405917
        18        50        52        53     9        0.000000        1.178678         3    ;  uncertainty k = 0.297789
        18        50        52        53     9      180.000000        0.054538         4    ;  uncertainty k = 0.124306
        18        50        52        54     9        0.000000        9.050821         1    ;  uncertainty k = 0.304912
        18        50        52        54     9      180.000000        6.374692         2    ;  uncertainty k = 0.405917
        18        50        52        54     9        0.000000        1.178678         3    ;  uncertainty k = 0.297789
        18        50        52        54     9      180.000000        0.054538         4    ;  uncertainty k = 0.124306
        19        18        17        55     9        0.000000       -1.411123         1    ;  uncertainty k = 0.345622
        19        18        17        55     9      180.000000       -0.225290         2    ;  uncertainty k = 0.172594
        19        18        17        55     9        0.000000        0.346843         3    ;  uncertainty k = 0.114252
        19        18        17        55     9      180.000000       -0.038457         4    ;  uncertainty k = 0.044896
        19        18        17        56     9        0.000000       -1.411123         1    ;  uncertainty k = 0.345622
        19        18        17        56     9      180.000000       -0.225290         2    ;  uncertainty k = 0.172594
        19        18        17        56     9        0.000000        0.346843         3    ;  uncertainty k = 0.114252
        19        18        17        56     9      180.000000       -0.038457         4    ;  uncertainty k = 0.044896
        19        18        50        51     9        0.000000       -1.412751         1    ;  uncertainty k = 0.366362
        19        18        50        51     9      180.000000        4.939282         2    ;  uncertainty k = 0.250194
        19        18        50        51     9        0.000000        1.341107         3    ;  uncertainty k = 0.099404
        19        18        50        51     9      180.000000        0.562838         4    ;  uncertainty k = 0.064019
        19        18        50        52     9        0.000000       -1.501807         1    ;  uncertainty k = 0.463410
        19        18        50        52     9      180.000000        3.323275         2    ;  uncertainty k = 0.502078
        19        18        50        52     9        0.000000        0.807080         3    ;  uncertainty k = 0.124119
        19        18        50        52     9      180.000000        0.125518         4    ;  uncertainty k = 0.039696
        19        20        14        32     9        0.000000       -1.467742         1    ;  uncertainty k = 0.302096
        19        20        14        32     9      180.000000       -0.257258         2    ;  uncertainty k = 0.240113
        19        20        14        32     9        0.000000        0.030321         3    ;  uncertainty k = 0.101962
        19        20        14        32     9      180.000000       -0.152013         4    ;  uncertainty k = 0.107484
        20        14        13        31     9        0.000000        0.635385         1    ;  uncertainty k = 0.758639
        20        14        13        31     9      180.000000       -0.409506         2    ;  uncertainty k = 0.331128
        20        14        13        31     9        0.000000        0.271434         3    ;  uncertainty k = 0.119798
        20        14        13        31     9      180.000000        0.015561         4    ;  uncertainty k = 0.076619
        20        14        16        21     9        0.000000       -2.812770         1    ;  uncertainty k = 0.476021
        20        14        16        21     9      180.000000       -0.110266         2    ;  uncertainty k = 0.376076
        20        14        16        21     9        0.000000        0.581736         3    ;  uncertainty k = 0.177495
        20        14        16        21     9      180.000000       -0.070447         4    ;  uncertainty k = 0.196410
        20        14        16        68     9        0.000000       -1.253602         1    ;  uncertainty k = 0.261135
        20        14        16        68     9      180.000000       -0.299214         2    ;  uncertainty k = 0.366643
        20        14        16        68     9        0.000000       -0.218863         3    ;  uncertainty k = 0.083190
        20        14        16        68     9      180.000000       -0.165690         4    ;  uncertainty k = 0.068380
        20        19        18        50     9        0.000000       -3.042856         1    ;  uncertainty k = 1.255460
        20        19        18        50     9      180.000000       -0.384066         2    ;  uncertainty k = 0.506050
        20        19        18        50     9        0.000000        0.568068         3    ;  uncertainty k = 0.143563
        20        19        18        50     9      180.000000        0.123689         4    ;  uncertainty k = 0.149073
        20        19        18        57     9        0.000000       -2.461228         1    ;  uncertainty k = 0.396150
        20        19        18        57     9      180.000000        0.138744         2    ;  uncertainty k = 0.107060
        20        19        18        57     9        0.000000        0.248333         3    ;  uncertainty k = 0.111967
        20        19        18        57     9      180.000000       -0.235150         4    ;  uncertainty k = 0.140386
        21        16        14        32     9        0.000000        0.062344         1    ;  uncertainty k = 1.100183
        21        16        14        32     9      180.000000       -1.469345         2    ;  uncertainty k = 0.520599
        21        16        14        32     9        0.000000        0.495032         3    ;  uncertainty k = 0.272668
        21        16        14        32     9      180.000000       -0.255767         4    ;  uncertainty k = 0.119865
        21        16        17        55     9        0.000000       -0.427435         1    ;  uncertainty k = 0.715503
        21        16        17        55     9      180.000000       -1.219759         2    ;  uncertainty k = 0.324042
        21        16        17        55     9        0.000000        0.959594         3    ;  uncertainty k = 0.057792
        21        16        17        55     9      180.000000       -0.287421         4    ;  uncertainty k = 0.054437
        21        16        17        56     9        0.000000       -0.427435         1    ;  uncertainty k = 0.715503
        21        16        17        56     9      180.000000       -1.219759         2    ;  uncertainty k = 0.324042
        21        16        17        56     9        0.000000        0.959594         3    ;  uncertainty k = 0.057792
        21        16        17        56     9      180.000000       -0.287421         4    ;  uncertainty k = 0.054437
        21        22        23        25     9        0.000000        2.331066         1    ;  uncertainty k = 1.152102
        21        22        23        25     9      180.000000        2.596169         2    ;  uncertainty k = 0.278815
        21        22        23        25     9        0.000000        0.009927         3    ;  uncertainty k = 0.144977
        21        22        23        25     9      180.000000       -0.114334         4    ;  uncertainty k = 0.149289
        21        22        23        26     9        0.000000        3.367960         1    ;  uncertainty k = 1.051353
        21        22        23        26     9      180.000000        3.218021         2    ;  uncertainty k = 0.680396
        21        22        23        26     9        0.000000        1.143577         3    ;  uncertainty k = 0.311002
        21        22        23        26     9      180.000000       -0.348976         4    ;  uncertainty k = 0.193639
        22        21        16        68     9        0.000000        1.089648         1    ;  uncertainty k = 0.334910
        22        21        16        68     9      180.000000       -0.432136         2    ;  uncertainty k = 0.173910
        22        21        16        68     9        0.000000        0.083475         3    ;  uncertainty k = 0.110493
        22        21        16        68     9      180.000000        0.217577         4    ;  uncertainty k = 0.051810
        22        23        25        34     9        0.000000        0.338836         1    ;  uncertainty k = 0.784673
        22        23        25        34     9      180.000000       19.192857         2    ;  uncertainty k = 0.359716
        22        23        25        34     9        0.000000        1.903447         3    ;  uncertainty k = 0.386883
        22        23        25        34     9      180.000000        1.368535         4    ;  uncertainty k = 0.528772
        22        23        26        35     9        0.000000        0.370727         1    ;  uncertainty k = 1.804242
        22        23        26        35     9      180.000000        8.920830         2    ;  uncertainty k = 1.081273
        22        23        26        35     9        0.000000        0.589745         3    ;  uncertainty k = 1.110553
        22        23        26        35     9      180.000000        0.676613         4    ;  uncertainty k = 0.547063
        23        22        21        33     9        0.000000       -0.086051         1    ;  uncertainty k = 0.569285
        23        22        21        33     9      180.000000        6.824223         2    ;  uncertainty k = 1.004102
        23        22        21        33     9        0.000000        2.774672         3    ;  uncertainty k = 0.278048
        23        22        21        33     9      180.000000        0.087878         4    ;  uncertainty k = 0.345011
        23        25        34        35     9        0.000000       -0.476241         1    ;  uncertainty k = 0.425307
        23        25        34        35     9      180.000000       15.671500         2    ;  uncertainty k = 0.795841
        23        25        34        35     9        0.000000       -2.864533         3    ;  uncertainty k = 0.780902
        23        25        34        35     9      180.000000        1.605024         4    ;  uncertainty k = 0.448125
        23        25        34        39     9        0.000000        0.569206         1    ;  uncertainty k = 1.621980
        23        25        34        39     9      180.000000       12.800205         2    ;  uncertainty k = 0.282748
        23        25        34        39     9        0.000000        1.817073         3    ;  uncertainty k = 0.361654
        23        25        34        39     9      180.000000        0.682642         4    ;  uncertainty k = 0.136948
        23        26        35        34     9        0.000000       -0.523789         1    ;  uncertainty k = 1.004169
        23        26        35        34     9      180.000000       13.442345         2    ;  uncertainty k = 0.923619
        23        26        35        34     9        0.000000       -9.024257         3    ;  uncertainty k = 1.660071
        23        26        35        34     9      180.000000        1.636793         4    ;  uncertainty k = 0.487983
        23        26        35        36     9        0.000000        1.116166         1    ;  uncertainty k = 1.266411
        23        26        35        36     9      180.000000       10.158909         2    ;  uncertainty k = 0.818049
        23        26        35        36     9        0.000000        0.724355         3    ;  uncertainty k = 0.566010
        23        26        35        36     9      180.000000       -0.026620         4    ;  uncertainty k = 0.200593
        24        22        21        33     9        0.000000        2.038363         1    ;  uncertainty k = 0.746143
        24        22        21        33     9      180.000000       14.699346         2    ;  uncertainty k = 0.325315
        24        22        21        33     9        0.000000        1.840592         3    ;  uncertainty k = 0.226058
        24        22        21        33     9      180.000000       -0.518143         4    ;  uncertainty k = 0.264067
        24        22        23        25     9        0.000000       -0.975565         1    ;  uncertainty k = 1.614283
        24        22        23        25     9      180.000000        3.488550         2    ;  uncertainty k = 0.286154
        24        22        23        25     9        0.000000        0.632000         3    ;  uncertainty k = 0.220397
        24        22        23        25     9      180.000000        0.223278         4    ;  uncertainty k = 0.063243
        24        22        23        26     9        0.000000       -0.928770         1    ;  uncertainty k = 0.780300
        24        22        23        26     9      180.000000        4.634695         2    ;  uncertainty k = 0.475093
        24        22        23        26     9        0.000000        0.007574         3    ;  uncertainty k = 0.071977
        24        22        23        26     9      180.000000        0.288910         4    ;  uncertainty k = 0.240907
        25        23        26        35     9        0.000000        0.143511         1    ;  uncertainty k = 1.333641
        25        23        26        35     9      180.000000       14.564367         2    ;  uncertainty k = 1.374348
        25        23        26        35     9        0.000000       -9.893199         3    ;  uncertainty k = 1.620531
        25        23        26        35     9      180.000000        1.663619         4    ;  uncertainty k = 0.759588
        25        34        35        26     9        0.000000        0.087022         1    ;  uncertainty k = 0.519435
        25        34        35        26     9      180.000000       17.308740         2    ;  uncertainty k = 0.865665
        25        34        35        26     9        0.000000       -2.374264         3    ;  uncertainty k = 0.748324
        25        34        35        26     9      180.000000        1.160228         4    ;  uncertainty k = 0.641111
        25        34        35        36     9        0.000000        0.011055         1    ;  uncertainty k = 0.425259
        25        34        35        36     9      180.000000       14.953749         2    ;  uncertainty k = 0.328993
        25        34        35        36     9        0.000000        1.241934         3    ;  uncertainty k = 0.342959
        25        34        35        36     9      180.000000        1.144042         4    ;  uncertainty k = 0.470191
        25        34        39        38     9        0.000000       -3.954572         1    ;  uncertainty k = 1.035742
        25        34        39        38     9      180.000000        1.199577         2    ;  uncertainty k = 0.494541
        25        34        39        38     9        0.000000        0.552603         3    ;  uncertainty k = 0.196554
        25        34        39        38     9      180.000000        0.408701         4    ;  uncertainty k = 0.071879
        25        34        39        45     9        0.000000        0.678330         1    ;  uncertainty k = 0.150352
        25        34        39        45     9      180.000000        1.438459         2    ;  uncertainty k = 0.504096
        25        34        39        45     9        0.000000        0.609129         3    ;  uncertainty k = 0.196471
        25        34        39        45     9      180.000000        0.167234         4    ;  uncertainty k = 0.108981
        25        34        39        46     9        0.000000        0.678330         1    ;  uncertainty k = 0.150352
        25        34        39        46     9      180.000000        1.438459         2    ;  uncertainty k = 0.504096
        25        34        39        46     9        0.000000        0.609129         3    ;  uncertainty k = 0.196471
        25        34        39        46     9      180.000000        0.167234         4    ;  uncertainty k = 0.108981
        26        23        25        34     9        0.000000       -0.152600         1    ;  uncertainty k = 0.906407
        26        23        25        34     9      180.000000       20.432965         2    ;  uncertainty k = 0.275340
        26        23        25        34     9        0.000000       -2.337892         3    ;  uncertainty k = 1.016825
        26        23        25        34     9      180.000000        1.938626         4    ;  uncertainty k = 0.362221
        26        35        34        39     9        0.000000        0.239944         1    ;  uncertainty k = 0.547138
        26        35        34        39     9      180.000000       12.400727         2    ;  uncertainty k = 0.549556
        26        35        34        39     9        0.000000        0.936373         3    ;  uncertainty k = 0.318788
        26        35        34        39     9      180.000000        0.958147         4    ;  uncertainty k = 0.190163
        26        35        36        37     9        0.000000       -8.471687         1    ;  uncertainty k = 1.305576
        26        35        36        37     9      180.000000       -0.738803         2    ;  uncertainty k = 0.986263
        26        35        36        37     9        0.000000        0.572190         3    ;  uncertainty k = 0.535086
        26        35        36        37     9      180.000000        0.223231         4    ;  uncertainty k = 0.263405
        26        35        36        41     9        0.000000        0.153964         1    ;  uncertainty k = 0.629108
        26        35        36        41     9      180.000000        0.393717         2    ;  uncertainty k = 0.317135
        26        35        36        41     9        0.000000        0.658149         3    ;  uncertainty k = 0.161833
        26        35        36        41     9      180.000000       -0.071880         4    ;  uncertainty k = 0.067074
        26        35        36        42     9        0.000000        0.153964         1    ;  uncertainty k = 0.629108
        26        35        36        42     9      180.000000        0.393717         2    ;  uncertainty k = 0.317135
        26        35        36        42     9        0.000000        0.658149         3    ;  uncertainty k = 0.161833
        26        35        36        42     9      180.000000       -0.071880         4    ;  uncertainty k = 0.067074
        27         7         6        69     9        0.000000       -0.324330         1    ;  uncertainty k = 0.231645
        27         7         6        69     9      180.000000        8.927911         2    ;  uncertainty k = 0.548133
        27         7         6        69     9        0.000000       -0.240429         3    ;  uncertainty k = 0.286780
        27         7         6        69     9      180.000000        0.279763         4    ;  uncertainty k = 0.266451
        28         8         9        29     9        0.000000       -0.093035         1    ;  uncertainty k = 0.256650
        28         8         9        29     9      180.000000        8.497216         2    ;  uncertainty k = 0.460129
        28         8         9        29     9        0.000000       -0.254972         3    ;  uncertainty k = 0.242221
        28         8         9        29     9      180.000000        0.244917         4    ;  uncertainty k = 0.212752
        31        13        14        32     9        0.000000        0.443017         1    ;  uncertainty k = 0.515732
        31        13        14        32     9      180.000000       -0.485917         2    ;  uncertainty k = 0.201387
        31        13        14        32     9        0.000000        0.149338         3    ;  uncertainty k = 0.147287
        31        13        14        32     9      180.000000        0.210182         4    ;  uncertainty k = 0.067110
        32        14        16        68     9        0.000000        1.517630         1    ;  uncertainty k = 0.278770
        32        14        16        68     9      180.000000       -0.677363         2    ;  uncertainty k = 0.157231
        32        14        16        68     9        0.000000       -0.219450         3    ;  uncertainty k = 0.164898
        32        14        16        68     9      180.000000       -0.045434         4    ;  uncertainty k = 0.124459
        32        14        20        60     9        0.000000        1.377005         1    ;  uncertainty k = 0.283194
        32        14        20        60     9      180.000000       -0.510553         2    ;  uncertainty k = 0.208115
        32        14        20        60     9        0.000000       -0.078579         3    ;  uncertainty k = 0.110925
        32        14        20        60     9      180.000000        0.041475         4    ;  uncertainty k = 0.028475
        32        14        20        61     9        0.000000        1.377005         1    ;  uncertainty k = 0.283194
        32        14        20        61     9      180.000000       -0.510553         2    ;  uncertainty k = 0.208115
        32        14        20        61     9        0.000000       -0.078579         3    ;  uncertainty k = 0.110925
        32        14        20        61     9      180.000000        0.041475         4    ;  uncertainty k = 0.028475
        33        21        16        68     9        0.000000        0.541481         1    ;  uncertainty k = 0.398177
        33        21        16        68     9      180.000000       -0.622570         2    ;  uncertainty k = 0.184277
        33        21        16        68     9        0.000000        0.191619         3    ;  uncertainty k = 0.116496
        33        21        16        68     9      180.000000        0.189193         4    ;  uncertainty k = 0.076095
        34        35        36        37     9        0.000000       -4.140071         1    ;  uncertainty k = 1.925675
        34        35        36        37     9      180.000000        2.074247         2    ;  uncertainty k = 0.552905
        34        35        36        37     9        0.000000       -0.109904         3    ;  uncertainty k = 0.505232
        34        35        36        37     9      180.000000        0.002033         4    ;  uncertainty k = 0.168271
        34        35        36        41     9        0.000000        0.751076         1    ;  uncertainty k = 0.572851
        34        35        36        41     9      180.000000        0.321327         2    ;  uncertainty k = 0.277446
        34        35        36        41     9        0.000000       -0.191165         3    ;  uncertainty k = 0.140749
        34        35        36        41     9      180.000000       -0.337116         4    ;  uncertainty k = 0.203995
        34        35        36        42     9        0.000000        0.751076         1    ;  uncertainty k = 0.572851
        34        35        36        42     9      180.000000        0.321327         2    ;  uncertainty k = 0.277446
        34        35        36        42     9        0.000000       -0.191165         3    ;  uncertainty k = 0.140749
        34        35        36        42     9      180.000000       -0.337116         4    ;  uncertainty k = 0.203995
        34        39        38        37     9        0.000000       -2.230974         1    ;  uncertainty k = 1.801449
        34        39        38        37     9      180.000000       -1.841150         2    ;  uncertainty k = 0.733686
        34        39        38        37     9        0.000000        2.407959         3    ;  uncertainty k = 0.680334
        34        39        38        37     9      180.000000       -0.535745         4    ;  uncertainty k = 0.301690
        34        39        38        43     9        0.000000        1.199598         1    ;  uncertainty k = 0.377899
        34        39        38        43     9      180.000000       -1.613470         2    ;  uncertainty k = 0.549592
        34        39        38        43     9        0.000000        0.472706         3    ;  uncertainty k = 0.260800
        34        39        38        43     9      180.000000        0.111560         4    ;  uncertainty k = 0.091588
        34        39        38        44     9        0.000000        1.199598         1    ;  uncertainty k = 0.377899
        34        39        38        44     9      180.000000       -1.613470         2    ;  uncertainty k = 0.549592
        34        39        38        44     9        0.000000        0.472706         3    ;  uncertainty k = 0.260800
        34        39        38        44     9      180.000000        0.111560         4    ;  uncertainty k = 0.091588
        35        34        39        38     9        0.000000       -4.440652         1    ;  uncertainty k = 1.431166
        35        34        39        38     9      180.000000        4.155396         2    ;  uncertainty k = 1.296225
        35        34        39        38     9        0.000000       -0.642889         3    ;  uncertainty k = 0.597439
        35        34        39        38     9      180.000000       -0.217610         4    ;  uncertainty k = 0.318749
        35        34        39        45     9        0.000000        0.013025         1    ;  uncertainty k = 0.359065
        35        34        39        45     9      180.000000        1.250042         2    ;  uncertainty k = 0.490358
        35        34        39        45     9        0.000000        0.121610         3    ;  uncertainty k = 0.182463
        35        34        39        45     9      180.000000       -0.043715         4    ;  uncertainty k = 0.054548
        35        34        39        46     9        0.000000        0.013025         1    ;  uncertainty k = 0.359065
        35        34        39        46     9      180.000000        1.250042         2    ;  uncertainty k = 0.490358
        35        34        39        46     9        0.000000        0.121610         3    ;  uncertainty k = 0.182463
        35        34        39        46     9      180.000000       -0.043715         4    ;  uncertainty k = 0.054548
        35        36        37        38     9        0.000000       -2.931117         1    ;  uncertainty k = 2.436693
        35        36        37        38     9      180.000000       -1.451129         2    ;  uncertainty k = 0.464093
        35        36        37        38     9        0.000000        1.404828         3    ;  uncertainty k = 0.130307
        35        36        37        38     9      180.000000       -0.528609         4    ;  uncertainty k = 0.249297
        35        36        37        40     9        0.000000       -2.021362         1    ;  uncertainty k = 1.008927
        35        36        37        40     9      180.000000       -1.118312         2    ;  uncertainty k = 0.472230
        35        36        37        40     9        0.000000        1.258207         3    ;  uncertainty k = 0.234248
        35        36        37        40     9      180.000000       -0.045254         4    ;  uncertainty k = 0.250793
        36        35        34        39     9        0.000000        0.282381         1    ;  uncertainty k = 0.657141
        36        35        34        39     9      180.000000       10.551064         2    ;  uncertainty k = 0.221306
        36        35        34        39     9        0.000000        1.077819         3    ;  uncertainty k = 0.516713
        36        35        34        39     9      180.000000        0.991474         4    ;  uncertainty k = 0.186199
        36        37        38        39     9        0.000000       -4.350974         1    ;  uncertainty k = 2.057076
        36        37        38        39     9      180.000000       -1.496991         2    ;  uncertainty k = 0.799614
        36        37        38        39     9        0.000000        0.281379         3    ;  uncertainty k = 0.338606
        36        37        38        39     9      180.000000       -0.187310         4    ;  uncertainty k = 0.252807
        36        37        38        43     9        0.000000       -6.987612         1    ;  uncertainty k = 0.982733
        36        37        38        43     9      180.000000       -0.297910         2    ;  uncertainty k = 0.446998
        36        37        38        43     9        0.000000        0.675891         3    ;  uncertainty k = 0.207193
        36        37        38        43     9      180.000000       -0.045061         4    ;  uncertainty k = 0.100310
        36        37        38        44     9        0.000000       -6.987612         1    ;  uncertainty k = 0.982733
        36        37        38        44     9      180.000000       -0.297910         2    ;  uncertainty k = 0.446998
        36        37        38        44     9        0.000000        0.675891         3    ;  uncertainty k = 0.207193
        36        37        38        44     9      180.000000       -0.045061         4    ;  uncertainty k = 0.100310
        36        37        40        47     9        0.000000       -4.178510         1    ;  uncertainty k = 0.410688
        36        37        40        47     9      180.000000       -2.187807         2    ;  uncertainty k = 0.398638
        36        37        40        47     9        0.000000        1.157619         3    ;  uncertainty k = 0.069416
        36        37        40        47     9      180.000000        0.075129         4    ;  uncertainty k = 0.097696
        36        37        40        48     9        0.000000       -4.178510         1    ;  uncertainty k = 0.410688
        36        37        40        48     9      180.000000       -2.187807         2    ;  uncertainty k = 0.398638
        36        37        40        48     9        0.000000        1.157619         3    ;  uncertainty k = 0.069416
        36        37        40        48     9      180.000000        0.075129         4    ;  uncertainty k = 0.097696
        36        37        40        49     9        0.000000       -4.178510         1    ;  uncertainty k = 0.410688
        36        37        40        49     9      180.000000       -2.187807         2    ;  uncertainty k = 0.398638
        36        37        40        49     9        0.000000        1.157619         3    ;  uncertainty k = 0.069416
        36        37        40        49     9      180.000000        0.075129         4    ;  uncertainty k = 0.097696
        37        38        39        45     9        0.000000       -0.446420         1    ;  uncertainty k = 0.389425
        37        38        39        45     9      180.000000       -0.446895         2    ;  uncertainty k = 0.443633
        37        38        39        45     9        0.000000        1.043482         3    ;  uncertainty k = 0.139130
        37        38        39        45     9      180.000000       -0.054508         4    ;  uncertainty k = 0.166266
        37        38        39        46     9        0.000000       -0.446420         1    ;  uncertainty k = 0.389425
        37        38        39        46     9      180.000000       -0.446895         2    ;  uncertainty k = 0.443633
        37        38        39        46     9        0.000000        1.043482         3    ;  uncertainty k = 0.139130
        37        38        39        46     9      180.000000       -0.054508         4    ;  uncertainty k = 0.166266
        38        37        36        41     9        0.000000       -4.951174         1    ;  uncertainty k = 1.276230
        38        37        36        41     9      180.000000       -0.772512         2    ;  uncertainty k = 0.594344
        38        37        36        41     9        0.000000        0.687582         3    ;  uncertainty k = 0.234878
        38        37        36        41     9      180.000000        0.165440         4    ;  uncertainty k = 0.126758
        38        37        36        42     9        0.000000       -4.951174         1    ;  uncertainty k = 1.276230
        38        37        36        42     9      180.000000       -0.772512         2    ;  uncertainty k = 0.594344
        38        37        36        42     9        0.000000        0.687582         3    ;  uncertainty k = 0.234878
        38        37        36        42     9      180.000000        0.165440         4    ;  uncertainty k = 0.126758
        38        37        40        47     9        0.000000       -4.259086         1    ;  uncertainty k = 0.974846
        38        37        40        47     9      180.000000       -2.027003         2    ;  uncertainty k = 0.417753
        38        37        40        47     9        0.000000        1.017651         3    ;  uncertainty k = 0.103023
        38        37        40        47     9      180.000000        0.065258         4    ;  uncertainty k = 0.091860
        38        37        40        48     9        0.000000       -4.259086         1    ;  uncertainty k = 0.974846
        38        37        40        48     9      180.000000       -2.027003         2    ;  uncertainty k = 0.417753
        38        37        40        48     9        0.000000        1.017651         3    ;  uncertainty k = 0.103023
        38        37        40        48     9      180.000000        0.065258         4    ;  uncertainty k = 0.091860
        38        37        40        49     9        0.000000       -4.259086         1    ;  uncertainty k = 0.974846
        38        37        40        49     9      180.000000       -2.027003         2    ;  uncertainty k = 0.417753
        38        37        40        49     9        0.000000        1.017651         3    ;  uncertainty k = 0.103023
        38        37        40        49     9      180.000000        0.065258         4    ;  uncertainty k = 0.091860
        39        38        37        40     9        0.000000       -2.366425         1    ;  uncertainty k = 0.799682
        39        38        37        40     9      180.000000       -0.858215         2    ;  uncertainty k = 0.575132
        39        38        37        40     9        0.000000        0.300582         3    ;  uncertainty k = 0.302529
        39        38        37        40     9      180.000000        0.326407         4    ;  uncertainty k = 0.081722
        40        37        36        41     9        0.000000       -2.503106         1    ;  uncertainty k = 0.610923
        40        37        36        41     9      180.000000       -1.207857         2    ;  uncertainty k = 0.461275
        40        37        36        41     9        0.000000        0.607046         3    ;  uncertainty k = 0.147323
        40        37        36        41     9      180.000000        0.178325         4    ;  uncertainty k = 0.088460
        40        37        36        42     9        0.000000       -2.503106         1    ;  uncertainty k = 0.610923
        40        37        36        42     9      180.000000       -1.207857         2    ;  uncertainty k = 0.461275
        40        37        36        42     9        0.000000        0.607046         3    ;  uncertainty k = 0.147323
        40        37        36        42     9      180.000000        0.178325         4    ;  uncertainty k = 0.088460
        40        37        38        43     9        0.000000       -3.143701         1    ;  uncertainty k = 0.576024
        40        37        38        43     9      180.000000       -1.381403         2    ;  uncertainty k = 0.223671
        40        37        38        43     9        0.000000        0.354530         3    ;  uncertainty k = 0.126408
        40        37        38        43     9      180.000000        0.148173         4    ;  uncertainty k = 0.137426
        40        37        38        44     9        0.000000       -3.143701         1    ;  uncertainty k = 0.576024
        40        37        38        44     9      180.000000       -1.381403         2    ;  uncertainty k = 0.223671
        40        37        38        44     9        0.000000        0.354530         3    ;  uncertainty k = 0.126408
        40        37        38        44     9      180.000000        0.148173         4    ;  uncertainty k = 0.137426
        43        38        39        45     9        0.000000       -0.690419         1    ;  uncertainty k = 0.249272
        43        38        39        45     9      180.000000        0.819889         2    ;  uncertainty k = 0.297922
        43        38        39        45     9        0.000000        0.232501         3    ;  uncertainty k = 0.086816
        43        38        39        45     9      180.000000       -0.277806         4    ;  uncertainty k = 0.067741
        43        38        39        46     9        0.000000       -0.690419         1    ;  uncertainty k = 0.249272
        43        38        39        46     9      180.000000        0.819889         2    ;  uncertainty k = 0.297922
        43        38        39        46     9        0.000000        0.232501         3    ;  uncertainty k = 0.086816
        43        38        39        46     9      180.000000       -0.277806         4    ;  uncertainty k = 0.067741
        44        38        39        45     9        0.000000       -0.690419         1    ;  uncertainty k = 0.249272
        44        38        39        45     9      180.000000        0.819889         2    ;  uncertainty k = 0.297922
        44        38        39        45     9        0.000000        0.232501         3    ;  uncertainty k = 0.086816
        44        38        39        45     9      180.000000       -0.277806         4    ;  uncertainty k = 0.067741
        44        38        39        46     9        0.000000       -0.690419         1    ;  uncertainty k = 0.249272
        44        38        39        46     9      180.000000        0.819889         2    ;  uncertainty k = 0.297922
        44        38        39        46     9        0.000000        0.232501         3    ;  uncertainty k = 0.086816
        44        38        39        46     9      180.000000       -0.277806         4    ;  uncertainty k = 0.067741
        50        18        17        55     9        0.000000        2.074967         1    ;  uncertainty k = 0.921198
        50        18        17        55     9      180.000000       -0.794571         2    ;  uncertainty k = 0.180952
        50        18        17        55     9        0.000000        0.466866         3    ;  uncertainty k = 0.273235
        50        18        17        55     9      180.000000        0.035537         4    ;  uncertainty k = 0.093276
        50        18        17        56     9        0.000000        2.074967         1    ;  uncertainty k = 0.921198
        50        18        17        56     9      180.000000       -0.794571         2    ;  uncertainty k = 0.180952
        50        18        17        56     9        0.000000        0.466866         3    ;  uncertainty k = 0.273235
        50        18        17        56     9      180.000000        0.035537         4    ;  uncertainty k = 0.093276
        50        18        19        58     9        0.000000        2.252951         1    ;  uncertainty k = 0.998081
        50        18        19        58     9      180.000000       -0.859965         2    ;  uncertainty k = 0.120364
        50        18        19        58     9        0.000000        0.534711         3    ;  uncertainty k = 0.219264
        50        18        19        58     9      180.000000        0.057172         4    ;  uncertainty k = 0.086080
        50        18        19        59     9        0.000000        2.252951         1    ;  uncertainty k = 0.998081
        50        18        19        59     9      180.000000       -0.859965         2    ;  uncertainty k = 0.120364
        50        18        19        59     9        0.000000        0.534711         3    ;  uncertainty k = 0.219264
        50        18        19        59     9      180.000000        0.057172         4    ;  uncertainty k = 0.086080
        50        52        53        62     9        0.000000        0.159650         1    ;  uncertainty k = 0.146342
        50        52        53        62     9      180.000000       -0.144813         2    ;  uncertainty k = 0.094204
        50        52        53        62     9        0.000000        0.215227         3    ;  uncertainty k = 0.050987
        50        52        53        62     9      180.000000        0.244118         4    ;  uncertainty k = 0.052779
        50        52        53        63     9        0.000000        0.159650         1    ;  uncertainty k = 0.146342
        50        52        53        63     9      180.000000       -0.144813         2    ;  uncertainty k = 0.094204
        50        52        53        63     9        0.000000        0.215227         3    ;  uncertainty k = 0.050987
        50        52        53        63     9      180.000000        0.244118         4    ;  uncertainty k = 0.052779
        50        52        53        64     9        0.000000        0.159650         1    ;  uncertainty k = 0.146342
        50        52        53        64     9      180.000000       -0.144813         2    ;  uncertainty k = 0.094204
        50        52        53        64     9        0.000000        0.215227         3    ;  uncertainty k = 0.050987
        50        52        53        64     9      180.000000        0.244118         4    ;  uncertainty k = 0.052779
        50        52        54        65     9        0.000000        0.159650         1    ;  uncertainty k = 0.146342
        50        52        54        65     9      180.000000       -0.144813         2    ;  uncertainty k = 0.094204
        50        52        54        65     9        0.000000        0.215227         3    ;  uncertainty k = 0.050987
        50        52        54        65     9      180.000000        0.244118         4    ;  uncertainty k = 0.052779
        50        52        54        66     9        0.000000        0.159650         1    ;  uncertainty k = 0.146342
        50        52        54        66     9      180.000000       -0.144813         2    ;  uncertainty k = 0.094204
        50        52        54        66     9        0.000000        0.215227         3    ;  uncertainty k = 0.050987
        50        52        54        66     9      180.000000        0.244118         4    ;  uncertainty k = 0.052779
        50        52        54        67     9        0.000000        0.159650         1    ;  uncertainty k = 0.146342
        50        52        54        67     9      180.000000       -0.144813         2    ;  uncertainty k = 0.094204
        50        52        54        67     9        0.000000        0.215227         3    ;  uncertainty k = 0.050987
        50        52        54        67     9      180.000000        0.244118         4    ;  uncertainty k = 0.052779
        51        50        18        57     9        0.000000       -0.646773         1    ;  uncertainty k = 0.397646
        51        50        18        57     9      180.000000        3.762065         2    ;  uncertainty k = 0.492695
        51        50        18        57     9        0.000000        1.483897         3    ;  uncertainty k = 0.235291
        51        50        18        57     9      180.000000       -0.025919         4    ;  uncertainty k = 0.096422
        51        50        52        53     9        0.000000        6.844605         1    ;  uncertainty k = 0.882211
        51        50        52        53     9      180.000000       19.790839         2    ;  uncertainty k = 0.105250
        51        50        52        53     9        0.000000       -0.220230         3    ;  uncertainty k = 0.161100
        51        50        52        53     9      180.000000       -1.123904         4    ;  uncertainty k = 0.136735
        51        50        52        54     9        0.000000        6.844605         1    ;  uncertainty k = 0.882211
        51        50        52        54     9      180.000000       19.790839         2    ;  uncertainty k = 0.105250
        51        50        52        54     9        0.000000       -0.220230         3    ;  uncertainty k = 0.161100
        51        50        52        54     9      180.000000       -1.123904         4    ;  uncertainty k = 0.136735
        52        50        18        57     9        0.000000       -0.975826         1    ;  uncertainty k = 0.419407
        52        50        18        57     9      180.000000        2.303974         2    ;  uncertainty k = 0.241164
        52        50        18        57     9        0.000000        0.361698         3    ;  uncertainty k = 0.116719
        52        50        18        57     9      180.000000        0.170218         4    ;  uncertainty k = 0.047482
        53        52        54        65     9        0.000000       -0.681994         1    ;  uncertainty k = 0.166187
        53        52        54        65     9      180.000000       -1.033629         2    ;  uncertainty k = 0.139918
        53        52        54        65     9        0.000000        1.312135         3    ;  uncertainty k = 0.057549
        53        52        54        65     9      180.000000        0.172025         4    ;  uncertainty k = 0.029064
        53        52        54        66     9        0.000000       -0.681994         1    ;  uncertainty k = 0.166187
        53        52        54        66     9      180.000000       -1.033629         2    ;  uncertainty k = 0.139918
        53        52        54        66     9        0.000000        1.312135         3    ;  uncertainty k = 0.057549
        53        52        54        66     9      180.000000        0.172025         4    ;  uncertainty k = 0.029064
        53        52        54        67     9        0.000000       -0.681994         1    ;  uncertainty k = 0.166187
        53        52        54        67     9      180.000000       -1.033629         2    ;  uncertainty k = 0.139918
        53        52        54        67     9        0.000000        1.312135         3    ;  uncertainty k = 0.057549
        53        52        54        67     9      180.000000        0.172025         4    ;  uncertainty k = 0.029064
        54        52        53        62     9        0.000000       -0.681994         1    ;  uncertainty k = 0.166187
        54        52        53        62     9      180.000000       -1.033629         2    ;  uncertainty k = 0.139918
        54        52        53        62     9        0.000000        1.312135         3    ;  uncertainty k = 0.057549
        54        52        53        62     9      180.000000        0.172025         4    ;  uncertainty k = 0.029064
        54        52        53        63     9        0.000000       -0.681994         1    ;  uncertainty k = 0.166187
        54        52        53        63     9      180.000000       -1.033629         2    ;  uncertainty k = 0.139918
        54        52        53        63     9        0.000000        1.312135         3    ;  uncertainty k = 0.057549
        54        52        53        63     9      180.000000        0.172025         4    ;  uncertainty k = 0.029064
        54        52        53        64     9        0.000000       -0.681994         1    ;  uncertainty k = 0.166187
        54        52        53        64     9      180.000000       -1.033629         2    ;  uncertainty k = 0.139918
        54        52        53        64     9        0.000000        1.312135         3    ;  uncertainty k = 0.057549
        54        52        53        64     9      180.000000        0.172025         4    ;  uncertainty k = 0.029064
        55        17        16        68     9        0.000000        1.227188         1    ;  uncertainty k = 0.333718
        55        17        16        68     9      180.000000       -0.559059         2    ;  uncertainty k = 0.228850
        55        17        16        68     9        0.000000       -0.052658         3    ;  uncertainty k = 0.148156
        55        17        16        68     9      180.000000        0.050866         4    ;  uncertainty k = 0.043410
        55        17        18        57     9        0.000000        1.275091         1    ;  uncertainty k = 0.308666
        55        17        18        57     9      180.000000       -0.191825         2    ;  uncertainty k = 0.161770
        55        17        18        57     9        0.000000       -0.005639         3    ;  uncertainty k = 0.106020
        55        17        18        57     9      180.000000        0.069270         4    ;  uncertainty k = 0.064132
        56        17        16        68     9        0.000000        1.227188         1    ;  uncertainty k = 0.333718
        56        17        16        68     9      180.000000       -0.559059         2    ;  uncertainty k = 0.228850
        56        17        16        68     9        0.000000       -0.052658         3    ;  uncertainty k = 0.148156
        56        17        16        68     9      180.000000        0.050866         4    ;  uncertainty k = 0.043410
        56        17        18        57     9        0.000000        1.275091         1    ;  uncertainty k = 0.308666
        56        17        18        57     9      180.000000       -0.191825         2    ;  uncertainty k = 0.161770
        56        17        18        57     9        0.000000       -0.005639         3    ;  uncertainty k = 0.106020
        56        17        18        57     9      180.000000        0.069270         4    ;  uncertainty k = 0.064132
        57        18        19        58     9        0.000000        1.375228         1    ;  uncertainty k = 0.292892
        57        18        19        58     9      180.000000       -0.112288         2    ;  uncertainty k = 0.227466
        57        18        19        58     9        0.000000       -0.024960         3    ;  uncertainty k = 0.142904
        57        18        19        58     9      180.000000        0.069958         4    ;  uncertainty k = 0.050452
        57        18        19        59     9        0.000000        1.375228         1    ;  uncertainty k = 0.292892
        57        18        19        59     9      180.000000       -0.112288         2    ;  uncertainty k = 0.227466
        57        18        19        59     9        0.000000       -0.024960         3    ;  uncertainty k = 0.142904
        57        18        19        59     9      180.000000        0.069958         4    ;  uncertainty k = 0.050452
        58        19        20        60     9        0.000000        2.326715         1    ;  uncertainty k = 0.674870
        58        19        20        60     9      180.000000       -0.090546         2    ;  uncertainty k = 0.158885
        58        19        20        60     9        0.000000        0.306144         3    ;  uncertainty k = 0.135782
        58        19        20        60     9      180.000000        0.130862         4    ;  uncertainty k = 0.038651
        58        19        20        61     9        0.000000        2.326715         1    ;  uncertainty k = 0.674870
        58        19        20        61     9      180.000000       -0.090546         2    ;  uncertainty k = 0.158885
        58        19        20        61     9        0.000000        0.306144         3    ;  uncertainty k = 0.135782
        58        19        20        61     9      180.000000        0.130862         4    ;  uncertainty k = 0.038651
        59        19        20        60     9        0.000000        2.326715         1    ;  uncertainty k = 0.674870
        59        19        20        60     9      180.000000       -0.090546         2    ;  uncertainty k = 0.158885
        59        19        20        60     9        0.000000        0.306144         3    ;  uncertainty k = 0.135782
        59        19        20        60     9      180.000000        0.130862         4    ;  uncertainty k = 0.038651
        59        19        20        61     9        0.000000        2.326715         1    ;  uncertainty k = 0.674870
        59        19        20        61     9      180.000000       -0.090546         2    ;  uncertainty k = 0.158885
        59        19        20        61     9        0.000000        0.306144         3    ;  uncertainty k = 0.135782
        59        19        20        61     9      180.000000        0.130862         4    ;  uncertainty k = 0.038651

[ dihedrals ] ; impropers
;       ai        aj        ak        al funct           phase               k        pn
         1         3         7        11     4      180.000000        8.487061         2    ;  uncertainty k = 0.285851
         1         7        11         3     4      180.000000        8.487061         2    ;  uncertainty k = 0.285851
         1        11         3         7     4      180.000000        8.487061         2    ;  uncertainty k = 0.285851
         3         1         4         8     4      180.000000       16.879372         2    ;  uncertainty k = 0.134218
         3         4         8         1     4      180.000000       16.879372         2    ;  uncertainty k = 0.134218
         3         8         1         4     4      180.000000       16.879372         2    ;  uncertainty k = 0.134218
         5         4         6        12     4      180.000000       17.460944         2    ;  uncertainty k = 0.088864
         5         6        12         4     4      180.000000       17.460944         2    ;  uncertainty k = 0.088864
         5        12         4         6     4      180.000000       17.460944         2    ;  uncertainty k = 0.088864
         6         5         7        69     4      180.000000        4.069039         2    ;  uncertainty k = 0.043451
         6         7        69         5     4      180.000000        4.069039         2    ;  uncertainty k = 0.043451
         6        69         5         7     4      180.000000        4.069039         2    ;  uncertainty k = 0.043451
         7         1         6        27     4      180.000000        5.773650         2    ;  uncertainty k = 0.225569
         7         6        27         1     4      180.000000        5.773650         2    ;  uncertainty k = 0.225569
         7        27         1         6     4      180.000000        5.773650         2    ;  uncertainty k = 0.225569
         8         3         9        28     4      180.000000        3.896115         2    ;  uncertainty k = 0.161873
         8         9        28         3     4      180.000000        3.896115         2    ;  uncertainty k = 0.161873
         8        28         3         9     4      180.000000        3.896115         2    ;  uncertainty k = 0.161873
         9         8        10        29     4      180.000000        4.224350         2    ;  uncertainty k = 0.149740
         9        10        29         8     4      180.000000        4.224350         2    ;  uncertainty k = 0.149740
         9        29         8        10     4      180.000000        4.224350         2    ;  uncertainty k = 0.149740
        10         2         9        11     4      180.000000       13.565053         2    ;  uncertainty k = 0.018890
        10         9        11         2     4      180.000000       13.565053         2    ;  uncertainty k = 0.018890
        10        11         2         9     4      180.000000       13.565053         2    ;  uncertainty k = 0.018890
        11         1        10        30     4      180.000000        3.763913         2    ;  uncertainty k = 0.326466
        11        10        30         1     4      180.000000        3.763913         2    ;  uncertainty k = 0.326466
        11        30         1        10     4      180.000000        3.763913         2    ;  uncertainty k = 0.326466
        12         5        13        15     4      180.000000       47.251196         2    ;  uncertainty k = 0.030552
        12        13        15         5     4      180.000000       47.251196         2    ;  uncertainty k = 0.030552
        12        15         5        13     4      180.000000       47.251196         2    ;  uncertainty k = 0.030552
        22        21        23        24     4      180.000000       49.476644         2    ;  uncertainty k = 0.014914
        22        23        24        21     4      180.000000       49.476644         2    ;  uncertainty k = 0.014914
        22        24        21        23     4      180.000000       49.476644         2    ;  uncertainty k = 0.014914
        23        22        25        26     4      180.000000        4.762177         2    ;  uncertainty k = 0.485670
        23        25        26        22     4      180.000000        4.762177         2    ;  uncertainty k = 0.485670
        23        26        22        25     4      180.000000        4.762177         2    ;  uncertainty k = 0.485670
        34        25        35        39     4      180.000000       10.302524         2    ;  uncertainty k = 0.235813
        34        35        39        25     4      180.000000       10.302524         2    ;  uncertainty k = 0.235813
        34        39        25        35     4      180.000000       10.302524         2    ;  uncertainty k = 0.235813
        35        26        34        36     4      180.000000        2.894551         2    ;  uncertainty k = 0.672593
        35        34        36        26     4      180.000000        2.894551         2    ;  uncertainty k = 0.672593
        35        36        26        34     4      180.000000        2.894551         2    ;  uncertainty k = 0.672593
        50        18        51        52     4      180.000000       51.316646         2    ;  uncertainty k = 0.028239
        50        51        52        18     4      180.000000       51.316646         2    ;  uncertainty k = 0.028239
        50        52        18        51     4      180.000000       51.316646         2    ;  uncertainty k = 0.028239

[ pairs ]
;       ai        aj funct
         1         2     1
         1         5     1
         1         9     1
         1        28     1
         1        69     1
         2         8     1
         2        29     1
         2        30     1
         3         6     1
         3        10     1
         3        12     1
         3        27     1
         3        29     1
         3        30     1
         4         7     1
         4         9     1
         4        11     1
         4        13     1
         4        15     1
         4        28     1
         4        69     1
         5         8     1
         5        14     1
         5        27     1
         5        31     1
         6        11     1
         6        13     1
         6        15     1
         7         8     1
         7        10     1
         7        12     1
         7        30     1
         8        11     1
         9        30     1
        10        28     1
        11        27     1
        11        29     1
        12        16     1
        12        20     1
        12        32     1
        12        69     1
        13        17     1
        13        19     1
        13        21     1
        13        60     1
        13        61     1
        13        68     1
        14        15     1
        14        18     1
        14        22     1
        14        33     1
        14        55     1
        14        56     1
        14        58     1
        14        59     1
        15        31     1
        16        19     1
        16        23     1
        16        24     1
        16        31     1
        16        50     1
        16        57     1
        16        60     1
        16        61     1
        17        20     1
        17        22     1
        17        32     1
        17        33     1
        17        51     1
        17        52     1
        17        58     1
        17        59     1
        18        21     1
        18        53     1
        18        54     1
        18        60     1
        18        61     1
        18        68     1
        19        32     1
        19        51     1
        19        52     1
        19        55     1
        19        56     1
        20        21     1
        20        31     1
        20        50     1
        20        57     1
        20        68     1
        21        25     1
        21        26     1
        21        32     1
        21        55     1
        21        56     1
        22        34     1
        22        35     1
        22        68     1
        23        33     1
        23        36     1
        23        39     1
        24        25     1
        24        26     1
        24        33     1
        25        36     1
        25        38     1
        25        45     1
        25        46     1
        26        37     1
        26        39     1
        26        41     1
        26        42     1
        27        69     1
        28        29     1
        31        32     1
        32        60     1
        32        61     1
        32        68     1
        33        68     1
        34        37     1
        34        41     1
        34        42     1
        34        43     1
        34        44     1
        35        38     1
        35        40     1
        35        45     1
        35        46     1
        36        39     1
        36        43     1
        36        44     1
        36        47     1
        36        48     1
        36        49     1
        37        45     1
        37        46     1
        38        41     1
        38        42     1
        38        47     1
        38        48     1
        38        49     1
        39        40     1
        40        41     1
        40        42     1
        40        43     1
        40        44     1
        43        45     1
        43        46     1
        44        45     1
        44        46     1
        50        55     1
        50        56     1
        50        58     1
        50        59     1
        50        62     1
        50        63     1
        50        64     1
        50        65     1
        50        66     1
        50        67     1
        51        53     1
        51        54     1
        51        57     1
        52        57     1
        53        65     1
        53        66     1
        53        67     1
        54        62     1
        54        63     1
        54        64     1
        55        57     1
        55        68     1
        56        57     1
        56        68     1
        57        58     1
        57        59     1
        58        60     1
        58        61     1
        59        60     1
        59        61     1
