; ITP file created by ByteFF-joint-25, 2025-07-14 11:37:39.229841

[ atomtypes ]
;name           bonded.type        at.num        mass        charge   ptype           sigma         epsilon
 c0bf                                   6      0.0000       0.00000       A     3.31518e-01     4.13299e-01    ;  uncertainty sigma = 0.000006, epsilon = 0.000406
 cl1bf                                 17      0.0000       0.00000       A     3.46607e-01     1.10412e+00    ;  uncertainty sigma = 0.000014, epsilon = 0.000714
 c2bf                                   6      0.0000       0.00000       A     3.31515e-01     4.13095e-01    ;  uncertainty sigma = 0.000003, epsilon = 0.000908
 c3bf                                   6      0.0000       0.00000       A     3.31546e-01     4.13274e-01    ;  uncertainty sigma = 0.000003, epsilon = 0.000708
 c4bf                                   6      0.0000       0.00000       A     3.31524e-01     4.13195e-01    ;  uncertainty sigma = 0.000007, epsilon = 0.000761
 n5bf                                   7      0.0000       0.00000       A     3.38394e-01     3.93271e-01    ;  uncertainty sigma = 0.000020, epsilon = 0.000837
 c6bf                                   6      0.0000       0.00000       A     3.31487e-01     4.13376e-01    ;  uncertainty sigma = 0.000010, epsilon = 0.001181
 c7bf                                   6      0.0000       0.00000       A     3.31512e-01     4.13310e-01    ;  uncertainty sigma = 0.000007, epsilon = 0.000472
 c8bf                                   6      0.0000       0.00000       A     3.31529e-01     4.13398e-01    ;  uncertainty sigma = 0.000005, epsilon = 0.000440
 c9bf                                   6      0.0000       0.00000       A     3.31534e-01     4.13120e-01    ;  uncertainty sigma = 0.000003, epsilon = 0.000727
 c10bf                                  6      0.0000       0.00000       A     3.31509e-01     4.13301e-01    ;  uncertainty sigma = 0.000005, epsilon = 0.000649
 c11bf                                  6      0.0000       0.00000       A     3.31540e-01     4.12459e-01    ;  uncertainty sigma = 0.000014, epsilon = 0.001236
 n12bf                                  7      0.0000       0.00000       A     3.27032e-01     4.89487e-01    ;  uncertainty sigma = 0.000040, epsilon = 0.002735
 c13bf                                  6      0.0000       0.00000       A     3.39789e-01     4.50800e-01    ;  uncertainty sigma = 0.000020, epsilon = 0.000925
 o14bf                                  8      0.0000       0.00000       A     3.04819e-01     6.12668e-01    ;  uncertainty sigma = 0.000026, epsilon = 0.000844
 c15bf                                  6      0.0000       0.00000       A     3.39779e-01     4.50691e-01    ;  uncertainty sigma = 0.000021, epsilon = 0.001068
 c16bf                                  6      0.0000       0.00000       A     3.39785e-01     4.51177e-01    ;  uncertainty sigma = 0.000013, epsilon = 0.000568
 c17bf                                  6      0.0000       0.00000       A     3.39788e-01     4.50813e-01    ;  uncertainty sigma = 0.000005, epsilon = 0.001015
 c18bf                                  6      0.0000       0.00000       A     3.39784e-01     4.51089e-01    ;  uncertainty sigma = 0.000005, epsilon = 0.000646
 c19bf                                  6      0.0000       0.00000       A     3.39763e-01     4.50994e-01    ;  uncertainty sigma = 0.000009, epsilon = 0.000666
 n20bf                                  7      0.0000       0.00000       A     3.27037e-01     4.89849e-01    ;  uncertainty sigma = 0.000029, epsilon = 0.003194
 c21bf                                  6      0.0000       0.00000       A     3.31529e-01     4.12690e-01    ;  uncertainty sigma = 0.000018, epsilon = 0.001128
 c22bf                                  6      0.0000       0.00000       A     3.31525e-01     4.13652e-01    ;  uncertainty sigma = 0.000013, epsilon = 0.001225
 o23bf                                  8      0.0000       0.00000       A     3.04890e-01     6.12219e-01    ;  uncertainty sigma = 0.000024, epsilon = 0.000874
 n24bf                                  7      0.0000       0.00000       A     3.38354e-01     3.93161e-01    ;  uncertainty sigma = 0.000020, epsilon = 0.001245
 s25bf                                 16      0.0000       0.00000       A     3.53288e-01     1.18179e+00    ;  uncertainty sigma = 0.000032, epsilon = 0.002346
 h26bf                                  1      0.0000       0.00000       A     2.62565e-01     6.71332e-02    ;  uncertainty sigma = 0.000017, epsilon = 0.000774
 h27bf                                  1      0.0000       0.00000       A     2.53664e-01     6.70037e-02    ;  uncertainty sigma = 0.000021, epsilon = 0.000638
 h28bf                                  1      0.0000       0.00000       A     2.62561e-01     6.70028e-02    ;  uncertainty sigma = 0.000012, epsilon = 0.000382
 h29bf                                  1      0.0000       0.00000       A     2.62554e-01     6.70089e-02    ;  uncertainty sigma = 0.000010, epsilon = 0.000673
 h30bf                                  1      0.0000       0.00000       A     2.62581e-01     6.69035e-02    ;  uncertainty sigma = 0.000016, epsilon = 0.000496
 h31bf                                  1      0.0000       0.00000       A     1.10671e-01     4.15432e-02    ;  uncertainty sigma = 0.000099, epsilon = 0.000844
 h32bf                                  1      0.0000       0.00000       A     2.42165e-01     8.67649e-02    ;  uncertainty sigma = 0.000033, epsilon = 0.001355
 h33bf                                  1      0.0000       0.00000       A     1.10666e-01     4.15404e-02    ;  uncertainty sigma = 0.000113, epsilon = 0.000907
 c34bf                                  6      0.0000       0.00000       A     3.31531e-01     4.13284e-01    ;  uncertainty sigma = 0.000022, epsilon = 0.000692
 c35bf                                  6      0.0000       0.00000       A     3.31510e-01     4.13232e-01    ;  uncertainty sigma = 0.000021, epsilon = 0.000971
 c36bf                                  6      0.0000       0.00000       A     3.39772e-01     4.51291e-01    ;  uncertainty sigma = 0.000007, epsilon = 0.001369
 n37bf                                  7      0.0000       0.00000       A     3.36491e-01     3.58344e-01    ;  uncertainty sigma = 0.000019, epsilon = 0.001758
 c38bf                                  6      0.0000       0.00000       A     3.39770e-01     4.51225e-01    ;  uncertainty sigma = 0.000009, epsilon = 0.000671
 c39bf                                  6      0.0000       0.00000       A     3.39762e-01     4.51164e-01    ;  uncertainty sigma = 0.000008, epsilon = 0.001424
 c40bf                                  6      0.0000       0.00000       A     3.39770e-01     4.51318e-01    ;  uncertainty sigma = 0.000003, epsilon = 0.000740
 h41bf                                  1      0.0000       0.00000       A     2.42250e-01     8.62902e-02    ;  uncertainty sigma = 0.000037, epsilon = 0.000964
 h42bf                                  1      0.0000       0.00000       A     2.42250e-01     8.62902e-02    ;  uncertainty sigma = 0.000037, epsilon = 0.000964
 h43bf                                  1      0.0000       0.00000       A     2.42218e-01     8.69005e-02    ;  uncertainty sigma = 0.000021, epsilon = 0.000739
 h44bf                                  1      0.0000       0.00000       A     2.42218e-01     8.69005e-02    ;  uncertainty sigma = 0.000021, epsilon = 0.000739
 h45bf                                  1      0.0000       0.00000       A     2.60015e-01     8.68230e-02    ;  uncertainty sigma = 0.000020, epsilon = 0.000739
 h46bf                                  1      0.0000       0.00000       A     2.60015e-01     8.68230e-02    ;  uncertainty sigma = 0.000020, epsilon = 0.000739
 h47bf                                  1      0.0000       0.00000       A     2.42198e-01     8.68693e-02    ;  uncertainty sigma = 0.000014, epsilon = 0.000543
 h48bf                                  1      0.0000       0.00000       A     2.42198e-01     8.68693e-02    ;  uncertainty sigma = 0.000014, epsilon = 0.000543
 h49bf                                  1      0.0000       0.00000       A     2.42198e-01     8.68693e-02    ;  uncertainty sigma = 0.000014, epsilon = 0.000543
 c50bf                                  6      0.0000       0.00000       A     3.31545e-01     4.13066e-01    ;  uncertainty sigma = 0.000011, epsilon = 0.001034
 o51bf                                  8      0.0000       0.00000       A     3.04819e-01     6.12467e-01    ;  uncertainty sigma = 0.000013, epsilon = 0.000996
 n52bf                                  7      0.0000       0.00000       A     3.18136e-01     6.84509e-01    ;  uncertainty sigma = 0.000019, epsilon = 0.001339
 c53bf                                  6      0.0000       0.00000       A     3.39777e-01     4.50876e-01    ;  uncertainty sigma = 0.000006, epsilon = 0.000504
 c54bf                                  6      0.0000       0.00000       A     3.39777e-01     4.50876e-01    ;  uncertainty sigma = 0.000006, epsilon = 0.000504
 h55bf                                  1      0.0000       0.00000       A     2.60016e-01     8.65219e-02    ;  uncertainty sigma = 0.000021, epsilon = 0.000613
 h56bf                                  1      0.0000       0.00000       A     2.60016e-01     8.65219e-02    ;  uncertainty sigma = 0.000021, epsilon = 0.000613
 h57bf                                  1      0.0000       0.00000       A     2.60030e-01     8.70270e-02    ;  uncertainty sigma = 0.000011, epsilon = 0.000538
 h58bf                                  1      0.0000       0.00000       A     2.60020e-01     8.66352e-02    ;  uncertainty sigma = 0.000016, epsilon = 0.000625
 h59bf                                  1      0.0000       0.00000       A     2.60020e-01     8.66352e-02    ;  uncertainty sigma = 0.000016, epsilon = 0.000625
 h60bf                                  1      0.0000       0.00000       A     2.60024e-01     8.67210e-02    ;  uncertainty sigma = 0.000008, epsilon = 0.000629
 h61bf                                  1      0.0000       0.00000       A     2.60024e-01     8.67210e-02    ;  uncertainty sigma = 0.000008, epsilon = 0.000629
 h62bf                                  1      0.0000       0.00000       A     2.42196e-01     8.67627e-02    ;  uncertainty sigma = 0.000011, epsilon = 0.000510
 h63bf                                  1      0.0000       0.00000       A     2.42196e-01     8.67627e-02    ;  uncertainty sigma = 0.000011, epsilon = 0.000510
 h64bf                                  1      0.0000       0.00000       A     2.42196e-01     8.67627e-02    ;  uncertainty sigma = 0.000011, epsilon = 0.000510
 h65bf                                  1      0.0000       0.00000       A     2.42196e-01     8.67627e-02    ;  uncertainty sigma = 0.000011, epsilon = 0.000510
 h66bf                                  1      0.0000       0.00000       A     2.42196e-01     8.67627e-02    ;  uncertainty sigma = 0.000011, epsilon = 0.000510
 h67bf                                  1      0.0000       0.00000       A     2.42196e-01     8.67627e-02    ;  uncertainty sigma = 0.000011, epsilon = 0.000510
 h68bf                                  1      0.0000       0.00000       A     2.42143e-01     8.68215e-02    ;  uncertainty sigma = 0.000035, epsilon = 0.001353

[ moleculetype ]
;name             nrexcl
 MOL                   3

[ atoms ]
;       nr            type      resi   res      atom      cgnr      charge          mass ; qtot
         1            c0bf         1   UNL        c0         1    -0.14269       12.0110 ; qtot   -0.143
         2           cl1bf         1   UNL       cl1         2    -0.10731       35.4530 ; qtot   -0.250
         3            c2bf         1   UNL        c2         3    -0.02642       12.0110 ; qtot   -0.276
         4            c3bf         1   UNL        c3         4    -0.15527       12.0110 ; qtot   -0.432
         5            c4bf         1   UNL        c4         5     0.33367       12.0110 ; qtot   -0.098
         6            n5bf         1   UNL        n5         6    -0.66554       14.0070 ; qtot   -0.764
         7            c6bf         1   UNL        c6         7     0.42997       12.0110 ; qtot   -0.334
         8            c7bf         1   UNL        c7         8    -0.10947       12.0110 ; qtot   -0.443
         9            c8bf         1   UNL        c8         9    -0.09967       12.0110 ; qtot   -0.543
        10            c9bf         1   UNL        c9        10     0.02462       12.0110 ; qtot   -0.518
        11           c10bf         1   UNL       c10        11    -0.08641       12.0110 ; qtot   -0.605
        12           c11bf         1   UNL       c11        12     0.57559       12.0110 ; qtot   -0.029
        13           n12bf         1   UNL       n12        13    -0.55663       14.0070 ; qtot   -0.586
        14           c13bf         1   UNL       c13        14     0.10384       12.0110 ; qtot   -0.482
        15           o14bf         1   UNL       o14        15    -0.60349       15.9990 ; qtot   -1.085
        16           c15bf         1   UNL       c15        16     0.10493       12.0110 ; qtot   -0.980
        17           c16bf         1   UNL       c16        17    -0.07517       12.0110 ; qtot   -1.055
        18           c17bf         1   UNL       c17        18    -0.13250       12.0110 ; qtot   -1.188
        19           c18bf         1   UNL       c18        19    -0.06578       12.0110 ; qtot   -1.254
        20           c19bf         1   UNL       c19        20    -0.08734       12.0110 ; qtot   -1.341
        21           n20bf         1   UNL       n20        21    -0.55641       14.0070 ; qtot   -1.897
        22           c21bf         1   UNL       c21        22     0.59414       12.0110 ; qtot   -1.303
        23           c22bf         1   UNL       c22        23     0.37509       12.0110 ; qtot   -0.928
        24           o23bf         1   UNL       o23        24    -0.57698       15.9990 ; qtot   -1.505
        25           n24bf         1   UNL       n24        25    -0.60853       14.0070 ; qtot   -2.114
        26           s25bf         1   UNL       s25        26    -0.11954       32.0670 ; qtot   -2.233
        27           h26bf         1   UNL       h26        27     0.16737        1.0080 ; qtot   -2.066
        28           h27bf         1   UNL       h27        28     0.02561        1.0080 ; qtot   -2.040
        29           h28bf         1   UNL       h28        29     0.14303        1.0080 ; qtot   -1.897
        30           h29bf         1   UNL       h29        30     0.15092        1.0080 ; qtot   -1.746
        31           h30bf         1   UNL       h30        31     0.15357        1.0080 ; qtot   -1.593
        32           h31bf         1   UNL       h31        32     0.34230        1.0080 ; qtot   -1.251
        33           h32bf         1   UNL       h32        33     0.07740        1.0080 ; qtot   -1.173
        34           h33bf         1   UNL       h33        34     0.33735        1.0080 ; qtot   -0.836
        35           c34bf         1   UNL       c34        35     0.34886       12.0110 ; qtot   -0.487
        36           c35bf         1   UNL       c35        36    -0.15290       12.0110 ; qtot   -0.640
        37           c36bf         1   UNL       c36        37     0.24342       12.0110 ; qtot   -0.396
        38           n37bf         1   UNL       n37        38    -0.71265       14.0070 ; qtot   -1.109
        39           c38bf         1   UNL       c38        39     0.15896       12.0110 ; qtot   -0.950
        40           c39bf         1   UNL       c39        40    -0.11292       12.0110 ; qtot   -1.063
        41           c40bf         1   UNL       c40        41     0.14692       12.0110 ; qtot   -0.916
        42           h41bf         1   UNL       h41        42     0.05218        1.0080 ; qtot   -0.864
        43           h42bf         1   UNL       h42        43     0.05218        1.0080 ; qtot   -0.812
        44           h43bf         1   UNL       h43        44     0.04542        1.0080 ; qtot   -0.766
        45           h44bf         1   UNL       h44        45     0.04542        1.0080 ; qtot   -0.721
        46           h45bf         1   UNL       h45        46     0.06419        1.0080 ; qtot   -0.657
        47           h46bf         1   UNL       h46        47     0.06419        1.0080 ; qtot   -0.592
        48           h47bf         1   UNL       h47        48     0.03530        1.0080 ; qtot   -0.557
        49           h48bf         1   UNL       h48        49     0.03530        1.0080 ; qtot   -0.522
        50           h49bf         1   UNL       h49        50     0.03530        1.0080 ; qtot   -0.487
        51           c50bf         1   UNL       c50        51     0.67193       12.0110 ; qtot    0.185
        52           o51bf         1   UNL       o51        52    -0.60797       15.9990 ; qtot   -0.423
        53           n52bf         1   UNL       n52        53    -0.49029       14.0070 ; qtot   -0.913
        54           c53bf         1   UNL       c53        54     0.08466       12.0110 ; qtot   -0.828
        55           c54bf         1   UNL       c54        55     0.08466       12.0110 ; qtot   -0.744
        56           h55bf         1   UNL       h55        56     0.06150        1.0080 ; qtot   -0.682
        57           h56bf         1   UNL       h56        57     0.06150        1.0080 ; qtot   -0.621
        58           h57bf         1   UNL       h57        58     0.06422        1.0080 ; qtot   -0.556
        59           h58bf         1   UNL       h58        59     0.05208        1.0080 ; qtot   -0.504
        60           h59bf         1   UNL       h59        60     0.05208        1.0080 ; qtot   -0.452
        61           h60bf         1   UNL       h60        61     0.05522        1.0080 ; qtot   -0.397
        62           h61bf         1   UNL       h61        62     0.05522        1.0080 ; qtot   -0.342
        63           h62bf         1   UNL       h62        63     0.04383        1.0080 ; qtot   -0.298
        64           h63bf         1   UNL       h63        64     0.04383        1.0080 ; qtot   -0.254
        65           h64bf         1   UNL       h64        65     0.04383        1.0080 ; qtot   -0.210
        66           h65bf         1   UNL       h65        66     0.04383        1.0080 ; qtot   -0.166
        67           h66bf         1   UNL       h66        67     0.04383        1.0080 ; qtot   -0.123
        68           h67bf         1   UNL       h67        68     0.04383        1.0080 ; qtot   -0.079
        69           h68bf         1   UNL       h68        69     0.07879        1.0080 ; qtot   -0.000

[ bonds ]
;       ai        aj funct               r               k
         1         3     1        0.142553   357194.699219    ;  uncertainty r = 0.000055, k = 2.481747
         1         7     1        0.142328   356549.274316    ;  uncertainty r = 0.000033, k = 9.513897
         1        11     1        0.141734   348818.859326    ;  uncertainty r = 0.000031, k = 8.037190
         2        10     1        0.175491   197893.495898    ;  uncertainty r = 0.000037, k = 5.310148
         3         4     1        0.141413   372541.735840    ;  uncertainty r = 0.000102, k = 4.903676
         3         8     1        0.142158   350630.104346    ;  uncertainty r = 0.000028, k = 8.578813
         4         5     1        0.137902   347181.624170    ;  uncertainty r = 0.000094, k = 13.772580
         4        27     1        0.108681   337376.676563    ;  uncertainty r = 0.000056, k = 1.894057
         5         6     1        0.135922   358319.098145    ;  uncertainty r = 0.000121, k = 26.770051
         5        12     1        0.149512   248261.204980    ;  uncertainty r = 0.000132, k = 13.634817
         6         7     1        0.131483   384853.840234    ;  uncertainty r = 0.000130, k = 4.588634
         7        28     1        0.109102   332674.783984    ;  uncertainty r = 0.000017, k = 2.424717
         8         9     1        0.137691   373526.446777    ;  uncertainty r = 0.000049, k = 4.393115
         8        29     1        0.108770   334997.894824    ;  uncertainty r = 0.000020, k = 1.802735
         9        10     1        0.141912   347804.959473    ;  uncertainty r = 0.000138, k = 2.224905
         9        30     1        0.108699   335956.660059    ;  uncertainty r = 0.000010, k = 1.028610
        10        11     1        0.137696   354371.520703    ;  uncertainty r = 0.000083, k = 5.349962
        11        31     1        0.108703   334624.644434    ;  uncertainty r = 0.000030, k = 1.526012
        12        13     1        0.135918   282440.506299    ;  uncertainty r = 0.000154, k = 16.913397
        12        15     1        0.123732   683866.985645    ;  uncertainty r = 0.000031, k = 5.195701
        13        14     1        0.145648   238794.138867    ;  uncertainty r = 0.000083, k = 16.154334
        13        32     1        0.101595   411296.393359    ;  uncertainty r = 0.000065, k = 3.337080
        14        16     1        0.154163   193154.191455    ;  uncertainty r = 0.000237, k = 6.997691
        14        20     1        0.153518   200172.708447    ;  uncertainty r = 0.000086, k = 6.949998
        14        33     1        0.109368   306120.812451    ;  uncertainty r = 0.000049, k = 3.101294
        16        17     1        0.153461   198493.451978    ;  uncertainty r = 0.000128, k = 5.281574
        16        21     1        0.145732   238691.326465    ;  uncertainty r = 0.000068, k = 15.691022
        16        69     1        0.109360   306494.828955    ;  uncertainty r = 0.000054, k = 3.368977
        17        18     1        0.153721   199006.850024    ;  uncertainty r = 0.000168, k = 6.848027
        17        56     1        0.109526   310433.851465    ;  uncertainty r = 0.000043, k = 0.875064
        17        57     1        0.109526   310433.851465    ;  uncertainty r = 0.000043, k = 0.875064
        18        19     1        0.153975   202217.337109    ;  uncertainty r = 0.000087, k = 2.573046
        18        51     1        0.153156   206143.680444    ;  uncertainty r = 0.000070, k = 12.443492
        18        58     1        0.109633   309151.735352    ;  uncertainty r = 0.000051, k = 6.503762
        19        20     1        0.153317   207892.474463    ;  uncertainty r = 0.000061, k = 5.382321
        19        59     1        0.109602   308125.501074    ;  uncertainty r = 0.000021, k = 1.819146
        19        60     1        0.109602   308125.501074    ;  uncertainty r = 0.000021, k = 1.819146
        20        61     1        0.109620   309930.898096    ;  uncertainty r = 0.000025, k = 1.029525
        20        62     1        0.109620   309930.898096    ;  uncertainty r = 0.000025, k = 1.029525
        21        22     1        0.136254   291452.475586    ;  uncertainty r = 0.000129, k = 17.867731
        21        34     1        0.101616   410581.507520    ;  uncertainty r = 0.000093, k = 3.750123
        22        23     1        0.147883   259563.418848    ;  uncertainty r = 0.000125, k = 27.680344
        22        24     1        0.123538   703630.001367    ;  uncertainty r = 0.000115, k = 12.098945
        23        25     1        0.130310   434161.095312    ;  uncertainty r = 0.000085, k = 15.053236
        23        26     1        0.175563   155788.944214    ;  uncertainty r = 0.000188, k = 10.470577
        25        35     1        0.137602   299978.345996    ;  uncertainty r = 0.000211, k = 8.739575
        26        36     1        0.173396   184345.625244    ;  uncertainty r = 0.000110, k = 8.530767
        35        36     1        0.137286   397473.794482    ;  uncertainty r = 0.000034, k = 9.608965
        35        40     1        0.149948   244144.622949    ;  uncertainty r = 0.000108, k = 7.193396
        36        37     1        0.150719   237383.826465    ;  uncertainty r = 0.000089, k = 11.691948
        37        38     1        0.146397   258698.068359    ;  uncertainty r = 0.000045, k = 12.802743
        37        42     1        0.110180   303656.992139    ;  uncertainty r = 0.000048, k = 3.959665
        37        43     1        0.110180   303656.992139    ;  uncertainty r = 0.000048, k = 3.959665
        38        39     1        0.146774   246527.975830    ;  uncertainty r = 0.000088, k = 8.191406
        38        41     1        0.145874   240551.449512    ;  uncertainty r = 0.000055, k = 4.989744
        39        40     1        0.153862   211171.503149    ;  uncertainty r = 0.000061, k = 10.297044
        39        44     1        0.109933   305388.127246    ;  uncertainty r = 0.000023, k = 3.768152
        39        45     1        0.109933   305388.127246    ;  uncertainty r = 0.000023, k = 3.768152
        40        46     1        0.109729   310887.467139    ;  uncertainty r = 0.000009, k = 2.383701
        40        47     1        0.109729   310887.467139    ;  uncertainty r = 0.000009, k = 2.383701
        41        48     1        0.109858   306972.960254    ;  uncertainty r = 0.000009, k = 1.032628
        41        49     1        0.109858   306972.960254    ;  uncertainty r = 0.000009, k = 1.032628
        41        50     1        0.109858   306972.960254    ;  uncertainty r = 0.000009, k = 1.032628
        51        52     1        0.123614   736987.492969    ;  uncertainty r = 0.000035, k = 11.451192
        51        53     1        0.137582   365085.512793    ;  uncertainty r = 0.000056, k = 20.353976
        53        54     1        0.145904   250764.582275    ;  uncertainty r = 0.000013, k = 6.211512
        53        55     1        0.145904   250764.582275    ;  uncertainty r = 0.000013, k = 6.211512
        54        63     1        0.109437   311080.731982    ;  uncertainty r = 0.000014, k = 1.257584
        54        64     1        0.109437   311080.731982    ;  uncertainty r = 0.000014, k = 1.257584
        54        65     1        0.109437   311080.731982    ;  uncertainty r = 0.000014, k = 1.257584
        55        66     1        0.109437   311080.731982    ;  uncertainty r = 0.000014, k = 1.257584
        55        67     1        0.109437   311080.731982    ;  uncertainty r = 0.000014, k = 1.257584
        55        68     1        0.109437   311080.731982    ;  uncertainty r = 0.000014, k = 1.257590

[ angles ]
;       ai        aj        ak funct           theta             cth
         1         3         4     1      116.428078      461.104591    ;  uncertainty theta = 0.006154, k = 0.086997
         1         3         8     1      117.783279      459.212227    ;  uncertainty theta = 0.005442, k = 0.080329
         1         7         6     1      124.879051      715.619138    ;  uncertainty theta = 0.003648, k = 0.139850
         1         7        28     1      120.108017      273.360902    ;  uncertainty theta = 0.003316, k = 0.097142
         1        11        10     1      118.864792      504.787700    ;  uncertainty theta = 0.002219, k = 0.097822
         1        11        31     1      120.558693      270.413473    ;  uncertainty theta = 0.001791, k = 0.098630
         2        10         9     1      119.674660      452.553234    ;  uncertainty theta = 0.001167, k = 0.088520
         2        10        11     1      120.266441      442.003248    ;  uncertainty theta = 0.001407, k = 0.037487
         3         1         7     1      116.842140      441.344391    ;  uncertainty theta = 0.002746, k = 0.215069
         3         1        11     1      119.497719      451.710925    ;  uncertainty theta = 0.002986, k = 0.093212
         3         4         5     1      118.127663      529.215669    ;  uncertainty theta = 0.002895, k = 0.242035
         3         4        27     1      121.919044      269.849677    ;  uncertainty theta = 0.004646, k = 0.119385
         3         8         9     1      120.283104      541.931298    ;  uncertainty theta = 0.002508, k = 0.142990
         3         8        29     1      119.579910      276.224729    ;  uncertainty theta = 0.002081, k = 0.107357
         4         3         8     1      124.420128      468.487816    ;  uncertainty theta = 0.002604, k = 0.126157
         4         5         6     1      124.774696      592.781556    ;  uncertainty theta = 0.003501, k = 0.203846
         4         5        12     1      118.306641      350.496571    ;  uncertainty theta = 0.004328, k = 0.332432
         5         4        27     1      121.226402      258.065259    ;  uncertainty theta = 0.003327, k = 0.088100
         5         6         7     1      120.741356      428.060497    ;  uncertainty theta = 0.006317, k = 0.290396
         5        12        13     1      113.417747      438.253219    ;  uncertainty theta = 0.002681, k = 0.154451
         5        12        15     1      121.162659      499.177197    ;  uncertainty theta = 0.004157, k = 0.132364
         6         5        12     1      115.403305      382.970070    ;  uncertainty theta = 0.004478, k = 0.205987
         6         7        28     1      116.682961      325.889842    ;  uncertainty theta = 0.004371, k = 0.101047
         7         1        11     1      122.652466      435.556437    ;  uncertainty theta = 0.003051, k = 0.156220
         8         9        10     1      119.747910      519.302578    ;  uncertainty theta = 0.001584, k = 0.044615
         8         9        30     1      120.293350      283.489813    ;  uncertainty theta = 0.000938, k = 0.089363
         9         8        29     1      120.227516      284.521130    ;  uncertainty theta = 0.001615, k = 0.040943
         9        10        11     1      122.092407      402.505384    ;  uncertainty theta = 0.001951, k = 0.086591
        10         9        30     1      120.639938      286.924299    ;  uncertainty theta = 0.001397, k = 0.019838
        10        11        31     1      121.478493      287.158347    ;  uncertainty theta = 0.000614, k = 0.092720
        12        13        14     1      116.018875      441.877797    ;  uncertainty theta = 0.005781, k = 0.270540
        12        13        32     1      116.737404      350.244966    ;  uncertainty theta = 0.004297, k = 0.131988
        13        12        15     1      124.560692      800.585059    ;  uncertainty theta = 0.002602, k = 0.122215
        13        14        16     1      109.078041      582.838682    ;  uncertainty theta = 0.004940, k = 0.179863
        13        14        20     1      110.638062      632.049777    ;  uncertainty theta = 0.002067, k = 0.088107
        13        14        33     1      105.299782      447.331598    ;  uncertainty theta = 0.004352, k = 0.128132
        14        13        32     1      112.604370      311.403598    ;  uncertainty theta = 0.001346, k = 0.262052
        14        16        17     1      109.656967      543.291404    ;  uncertainty theta = 0.003196, k = 0.182204
        14        16        21     1      109.146683      584.442413    ;  uncertainty theta = 0.004622, k = 0.173858
        14        16        69     1      107.717239      383.850653    ;  uncertainty theta = 0.001765, k = 0.083403
        14        20        19     1      109.780396      550.449520    ;  uncertainty theta = 0.003491, k = 0.116853
        14        20        61     1      107.481422      382.863197    ;  uncertainty theta = 0.000870, k = 0.034003
        14        20        62     1      107.481422      382.863197    ;  uncertainty theta = 0.000870, k = 0.034003
        16        14        20     1      109.386574      551.865233    ;  uncertainty theta = 0.000986, k = 0.237382
        16        14        33     1      107.472862      382.095998    ;  uncertainty theta = 0.002525, k = 0.088543
        16        17        18     1      110.158470      537.237002    ;  uncertainty theta = 0.003364, k = 0.118913
        16        17        56     1      107.462036      385.087415    ;  uncertainty theta = 0.000668, k = 0.059043
        16        17        57     1      107.462036      385.087415    ;  uncertainty theta = 0.000668, k = 0.059043
        16        21        22     1      116.259842      438.599854    ;  uncertainty theta = 0.006695, k = 0.183209
        16        21        34     1      112.698265      315.764027    ;  uncertainty theta = 0.001508, k = 0.296876
        17        16        21     1      110.222816      630.153200    ;  uncertainty theta = 0.002135, k = 0.087453
        17        16        69     1      108.603882      408.571724    ;  uncertainty theta = 0.001775, k = 0.034676
        17        18        19     1      109.900391      583.567575    ;  uncertainty theta = 0.002330, k = 0.083135
        17        18        51     1      108.569168      489.144113    ;  uncertainty theta = 0.003757, k = 0.073146
        17        18        58     1      107.332260      401.082169    ;  uncertainty theta = 0.002516, k = 0.077903
        18        17        56     1      108.676857      396.198101    ;  uncertainty theta = 0.000795, k = 0.026396
        18        17        57     1      108.676857      396.198101    ;  uncertainty theta = 0.000795, k = 0.026396
        18        19        20     1      109.789757      580.826741    ;  uncertainty theta = 0.001891, k = 0.142184
        18        19        59     1      108.292625      386.614311    ;  uncertainty theta = 0.000735, k = 0.019139
        18        19        60     1      108.292625      386.614311    ;  uncertainty theta = 0.000735, k = 0.019139
        18        51        52     1      123.648819      547.647652    ;  uncertainty theta = 0.003749, k = 0.250532
        18        51        53     1      114.135170      399.306701    ;  uncertainty theta = 0.002339, k = 0.216014
        19        18        51     1      108.943726      496.415422    ;  uncertainty theta = 0.001979, k = 0.055108
        19        18        58     1      107.694107      403.879791    ;  uncertainty theta = 0.001685, k = 0.082263
        19        20        61     1      108.762428      400.566224    ;  uncertainty theta = 0.001510, k = 0.036687
        19        20        62     1      108.762428      400.566224    ;  uncertainty theta = 0.001510, k = 0.036687
        20        14        33     1      108.912514      410.850975    ;  uncertainty theta = 0.001579, k = 0.068352
        20        19        59     1      108.482193      402.788750    ;  uncertainty theta = 0.000884, k = 0.036541
        20        19        60     1      108.482193      402.788750    ;  uncertainty theta = 0.000884, k = 0.036541
        21        16        69     1      105.245773      446.491842    ;  uncertainty theta = 0.004278, k = 0.178016
        21        22        23     1      113.070839      435.784547    ;  uncertainty theta = 0.006920, k = 0.140238
        21        22        24     1      124.950012      804.911939    ;  uncertainty theta = 0.003994, k = 0.055585
        22        21        34     1      116.250000      347.593576    ;  uncertainty theta = 0.004441, k = 0.081627
        22        23        25     1      122.197128      370.860213    ;  uncertainty theta = 0.005964, k = 0.255742
        22        23        26     1      118.123451      287.405674    ;  uncertainty theta = 0.005808, k = 0.204925
        23        22        24     1      120.002197      453.227350    ;  uncertainty theta = 0.007890, k = 0.121396
        23        25        35     1      111.845421      637.059456    ;  uncertainty theta = 0.004719, k = 0.108197
        23        26        36     1       89.170425     1132.634133    ;  uncertainty theta = 0.004755, k = 0.314956
        25        23        26     1      116.136452      646.965173    ;  uncertainty theta = 0.002239, k = 0.246117
        25        35        36     1      115.716957      690.992937    ;  uncertainty theta = 0.003156, k = 0.158093
        25        35        40     1      124.040390      433.932787    ;  uncertainty theta = 0.004363, k = 0.201750
        26        36        35     1      109.672325      507.238336    ;  uncertainty theta = 0.002750, k = 0.124654
        26        36        37     1      124.458923      318.004972    ;  uncertainty theta = 0.003631, k = 0.249957
        35        36        37     1      122.449425      322.713122    ;  uncertainty theta = 0.004108, k = 0.373686
        35        40        39     1      106.939438      596.797522    ;  uncertainty theta = 0.003584, k = 0.044131
        35        40        46     1      108.548073      392.911220    ;  uncertainty theta = 0.001454, k = 0.086868
        35        40        47     1      108.548073      392.911220    ;  uncertainty theta = 0.001454, k = 0.086868
        36        35        40     1      120.498146      325.489963    ;  uncertainty theta = 0.004995, k = 0.174544
        36        37        38     1      109.701111      686.046080    ;  uncertainty theta = 0.001850, k = 0.201796
        36        37        42     1      108.925659      409.463193    ;  uncertainty theta = 0.001395, k = 0.154098
        36        37        43     1      108.925659      409.463193    ;  uncertainty theta = 0.001395, k = 0.154098
        37        38        39     1      108.084244      491.834927    ;  uncertainty theta = 0.003315, k = 0.091086
        37        38        41     1      107.580322      510.743273    ;  uncertainty theta = 0.002764, k = 0.057722
        38        37        42     1      109.358154      448.409487    ;  uncertainty theta = 0.001850, k = 0.074310
        38        37        43     1      109.358154      448.409487    ;  uncertainty theta = 0.001850, k = 0.074310
        38        39        40     1      112.487526      700.788206    ;  uncertainty theta = 0.002677, k = 0.118016
        38        39        44     1      108.920166      453.721493    ;  uncertainty theta = 0.001526, k = 0.064884
        38        39        45     1      108.920166      453.721493    ;  uncertainty theta = 0.001526, k = 0.064884
        38        41        48     1      110.438461      450.024231    ;  uncertainty theta = 0.001821, k = 0.029766
        38        41        49     1      110.438461      450.024231    ;  uncertainty theta = 0.001821, k = 0.029766
        38        41        50     1      110.438461      450.024231    ;  uncertainty theta = 0.001821, k = 0.029766
        39        38        41     1      108.245483      523.945384    ;  uncertainty theta = 0.002945, k = 0.105030
        39        40        46     1      108.704140      394.566535    ;  uncertainty theta = 0.001154, k = 0.056791
        39        40        47     1      108.704140      394.566535    ;  uncertainty theta = 0.001154, k = 0.056791
        40        39        44     1      108.660522      413.983038    ;  uncertainty theta = 0.001451, k = 0.079858
        40        39        45     1      108.660522      413.983038    ;  uncertainty theta = 0.001451, k = 0.079858
        42        37        43     1      104.710770      316.430897    ;  uncertainty theta = 0.002647, k = 0.058044
        44        39        45     1      105.686386      320.062785    ;  uncertainty theta = 0.001993, k = 0.069558
        46        40        47     1      105.018166      307.701164    ;  uncertainty theta = 0.001306, k = 0.028790
        48        41        49     1      106.707680      321.292396    ;  uncertainty theta = 0.002211, k = 0.028957
        48        41        50     1      106.707680      321.292396    ;  uncertainty theta = 0.002211, k = 0.028957
        49        41        50     1      106.707680      321.292396    ;  uncertainty theta = 0.002211, k = 0.028957
        51        18        58     1      106.313622      362.200292    ;  uncertainty theta = 0.002423, k = 0.146630
        51        53        54     1      116.622971      385.561065    ;  uncertainty theta = 0.001770, k = 0.124804
        51        53        55     1      116.622971      385.561065    ;  uncertainty theta = 0.001770, k = 0.124804
        52        51        53     1      123.396584      724.695474    ;  uncertainty theta = 0.001503, k = 0.174408
        53        54        63     1      109.352982      479.364486    ;  uncertainty theta = 0.001224, k = 0.042687
        53        54        64     1      109.352982      479.364486    ;  uncertainty theta = 0.001224, k = 0.042687
        53        54        65     1      109.352982      479.364486    ;  uncertainty theta = 0.001224, k = 0.042687
        53        55        66     1      109.352982      479.364486    ;  uncertainty theta = 0.001224, k = 0.042687
        53        55        67     1      109.352982      479.364486    ;  uncertainty theta = 0.001224, k = 0.042687
        53        55        68     1      109.352982      479.364486    ;  uncertainty theta = 0.001224, k = 0.042687
        54        53        55     1      118.428368      428.731644    ;  uncertainty theta = 0.003391, k = 0.223109
        56        17        57     1      105.326035      326.596294    ;  uncertainty theta = 0.002223, k = 0.051835
        59        19        60     1      104.655197      318.642921    ;  uncertainty theta = 0.002537, k = 0.034949
        61        20        62     1      105.087135      316.700154    ;  uncertainty theta = 0.002326, k = 0.045638
        63        54        64     1      106.824196      329.099123    ;  uncertainty theta = 0.001131, k = 0.027019
        63        54        65     1      106.824196      329.099123    ;  uncertainty theta = 0.001131, k = 0.027019
        64        54        65     1      106.824196      329.099123    ;  uncertainty theta = 0.001131, k = 0.027019
        66        55        67     1      106.824196      329.099123    ;  uncertainty theta = 0.001131, k = 0.027019
        66        55        68     1      106.824196      329.099123    ;  uncertainty theta = 0.001131, k = 0.027019
        67        55        68     1      106.824196      329.099123    ;  uncertainty theta = 0.001131, k = 0.027019

[ dihedrals ] ; propers for gromacs 4.5 or higher, use funct 9
;       ai        aj        ak        al funct           phase               k        pn
         1         3         4         5     9        0.000000       -0.045560         1    ;  uncertainty k = 0.335778
         1         3         4         5     9      180.000000       10.096524         2    ;  uncertainty k = 0.592750
         1         3         4         5     9        0.000000       -0.304438         3    ;  uncertainty k = 0.183456
         1         3         4         5     9      180.000000        1.079137         4    ;  uncertainty k = 0.171640
         1         3         4        27     9        0.000000        0.023282         1    ;  uncertainty k = 0.389033
         1         3         4        27     9      180.000000        6.440068         2    ;  uncertainty k = 0.344831
         1         3         4        27     9        0.000000        1.175353         3    ;  uncertainty k = 0.249313
         1         3         4        27     9      180.000000        1.251847         4    ;  uncertainty k = 0.124428
         1         3         8         9     9        0.000000        0.046968         1    ;  uncertainty k = 0.348451
         1         3         8         9     9      180.000000       10.378973         2    ;  uncertainty k = 0.394941
         1         3         8         9     9        0.000000       -0.434214         3    ;  uncertainty k = 0.277339
         1         3         8         9     9      180.000000        1.045682         4    ;  uncertainty k = 0.213589
         1         3         8        29     9        0.000000       -0.209174         1    ;  uncertainty k = 0.577838
         1         3         8        29     9      180.000000        6.330243         2    ;  uncertainty k = 0.316994
         1         3         8        29     9        0.000000        1.235617         3    ;  uncertainty k = 0.266375
         1         3         8        29     9      180.000000        1.162643         4    ;  uncertainty k = 0.050679
         1         7         6         5     9        0.000000       -0.159870         1    ;  uncertainty k = 0.497053
         1         7         6         5     9      180.000000       16.537420         2    ;  uncertainty k = 0.377346
         1         7         6         5     9        0.000000        1.295859         3    ;  uncertainty k = 0.549260
         1         7         6         5     9      180.000000        1.695731         4    ;  uncertainty k = 0.351221
         1        11        10         2     9        0.000000       -0.015063         1    ;  uncertainty k = 0.228395
         1        11        10         2     9      180.000000       11.893272         2    ;  uncertainty k = 0.496768
         1        11        10         2     9        0.000000        1.657568         3    ;  uncertainty k = 0.198934
         1        11        10         2     9      180.000000        1.593391         4    ;  uncertainty k = 0.254058
         1        11        10         9     9        0.000000        0.025549         1    ;  uncertainty k = 0.295351
         1        11        10         9     9      180.000000       11.205601         2    ;  uncertainty k = 0.401584
         1        11        10         9     9        0.000000        0.225237         3    ;  uncertainty k = 0.459962
         1        11        10         9     9      180.000000        1.185743         4    ;  uncertainty k = 0.388062
         2        10         9         8     9        0.000000        0.138791         1    ;  uncertainty k = 0.144074
         2        10         9         8     9      180.000000        7.876785         2    ;  uncertainty k = 0.678837
         2        10         9         8     9        0.000000        1.394782         3    ;  uncertainty k = 0.525974
         2        10         9         8     9      180.000000        1.528560         4    ;  uncertainty k = 0.259346
         2        10         9        30     9        0.000000        0.101336         1    ;  uncertainty k = 0.322619
         2        10         9        30     9      180.000000        6.728509         2    ;  uncertainty k = 0.202001
         2        10         9        30     9        0.000000        0.665449         3    ;  uncertainty k = 0.292161
         2        10         9        30     9      180.000000        0.905533         4    ;  uncertainty k = 0.164988
         2        10        11        31     9        0.000000       -0.306673         1    ;  uncertainty k = 0.477384
         2        10        11        31     9      180.000000        8.792413         2    ;  uncertainty k = 0.466305
         2        10        11        31     9        0.000000        0.826839         3    ;  uncertainty k = 0.234848
         2        10        11        31     9      180.000000        1.090599         4    ;  uncertainty k = 0.296385
         3         1         7         6     9        0.000000        0.121467         1    ;  uncertainty k = 0.443859
         3         1         7         6     9      180.000000        9.954826         2    ;  uncertainty k = 0.574766
         3         1         7         6     9        0.000000       -0.278047         3    ;  uncertainty k = 0.388403
         3         1         7         6     9      180.000000        1.034522         4    ;  uncertainty k = 0.383853
         3         1         7        28     9        0.000000       -0.543858         1    ;  uncertainty k = 0.675825
         3         1         7        28     9      180.000000        5.258485         2    ;  uncertainty k = 0.842255
         3         1         7        28     9        0.000000        0.974035         3    ;  uncertainty k = 0.249679
         3         1         7        28     9      180.000000        0.882769         4    ;  uncertainty k = 0.174243
         3         1        11        10     9        0.000000       -0.130369         1    ;  uncertainty k = 0.339893
         3         1        11        10     9      180.000000       11.214465         2    ;  uncertainty k = 0.365170
         3         1        11        10     9        0.000000       -0.446577         3    ;  uncertainty k = 0.178156
         3         1        11        10     9      180.000000        1.147316         4    ;  uncertainty k = 0.155792
         3         1        11        31     9        0.000000       -0.122433         1    ;  uncertainty k = 0.443691
         3         1        11        31     9      180.000000        6.363496         2    ;  uncertainty k = 0.551799
         3         1        11        31     9        0.000000        1.331631         3    ;  uncertainty k = 0.210277
         3         1        11        31     9      180.000000        1.284462         4    ;  uncertainty k = 0.140197
         3         4         5         6     9        0.000000       -0.318237         1    ;  uncertainty k = 0.396413
         3         4         5         6     9      180.000000       13.309037         2    ;  uncertainty k = 0.263968
         3         4         5         6     9        0.000000        0.175678         3    ;  uncertainty k = 0.217035
         3         4         5         6     9      180.000000        1.231081         4    ;  uncertainty k = 0.185198
         3         4         5        12     9        0.000000        0.252547         1    ;  uncertainty k = 0.372822
         3         4         5        12     9      180.000000        9.717195         2    ;  uncertainty k = 0.645608
         3         4         5        12     9        0.000000        1.392426         3    ;  uncertainty k = 0.222694
         3         4         5        12     9      180.000000        1.696788         4    ;  uncertainty k = 0.320035
         3         8         9        10     9        0.000000       -0.018623         1    ;  uncertainty k = 0.357938
         3         8         9        10     9      180.000000       16.268194         2    ;  uncertainty k = 0.205888
         3         8         9        10     9        0.000000       -0.255070         3    ;  uncertainty k = 0.545727
         3         8         9        10     9      180.000000        0.888523         4    ;  uncertainty k = 0.305455
         3         8         9        30     9        0.000000        0.038692         1    ;  uncertainty k = 0.121743
         3         8         9        30     9      180.000000       10.480226         2    ;  uncertainty k = 0.216943
         3         8         9        30     9        0.000000        1.642994         3    ;  uncertainty k = 0.255628
         3         8         9        30     9      180.000000        1.808255         4    ;  uncertainty k = 0.218279
         4         3         1         7     9        0.000000       -0.324309         1    ;  uncertainty k = 0.623461
         4         3         1         7     9      180.000000        7.097812         2    ;  uncertainty k = 0.624121
         4         3         1         7     9        0.000000        0.131642         3    ;  uncertainty k = 0.260524
         4         3         1         7     9      180.000000        1.466730         4    ;  uncertainty k = 0.406847
         4         3         1        11     9        0.000000       -0.201038         1    ;  uncertainty k = 0.211612
         4         3         1        11     9      180.000000        7.408446         2    ;  uncertainty k = 0.409724
         4         3         1        11     9        0.000000        0.262691         3    ;  uncertainty k = 0.219473
         4         3         1        11     9      180.000000        1.452411         4    ;  uncertainty k = 0.286458
         4         3         8         9     9        0.000000       -0.125848         1    ;  uncertainty k = 0.449550
         4         3         8         9     9      180.000000        8.858127         2    ;  uncertainty k = 0.160008
         4         3         8         9     9        0.000000        0.399806         3    ;  uncertainty k = 0.394928
         4         3         8         9     9      180.000000        1.365340         4    ;  uncertainty k = 0.101596
         4         3         8        29     9        0.000000       -0.269908         1    ;  uncertainty k = 0.400359
         4         3         8        29     9      180.000000        6.305226         2    ;  uncertainty k = 0.410252
         4         3         8        29     9        0.000000        1.121668         3    ;  uncertainty k = 0.189923
         4         3         8        29     9      180.000000        1.092632         4    ;  uncertainty k = 0.101426
         4         5         6         7     9        0.000000       -0.152027         1    ;  uncertainty k = 0.298123
         4         5         6         7     9      180.000000       10.657274         2    ;  uncertainty k = 0.428925
         4         5         6         7     9        0.000000        1.749802         3    ;  uncertainty k = 0.397742
         4         5         6         7     9      180.000000        0.977661         4    ;  uncertainty k = 0.276004
         4         5        12        13     9        0.000000       -1.320756         1    ;  uncertainty k = 1.120614
         4         5        12        13     9      180.000000        2.660179         2    ;  uncertainty k = 0.326605
         4         5        12        13     9        0.000000        0.751229         3    ;  uncertainty k = 0.236363
         4         5        12        13     9      180.000000       -0.123700         4    ;  uncertainty k = 0.141888
         4         5        12        15     9        0.000000       -1.136509         1    ;  uncertainty k = 0.635330
         4         5        12        15     9      180.000000        3.416520         2    ;  uncertainty k = 0.344446
         4         5        12        15     9        0.000000        0.216978         3    ;  uncertainty k = 0.445283
         4         5        12        15     9      180.000000        0.036937         4    ;  uncertainty k = 0.112837
         5         4         3         8     9        0.000000       -0.107372         1    ;  uncertainty k = 0.512192
         5         4         3         8     9      180.000000        8.899337         2    ;  uncertainty k = 0.359273
         5         4         3         8     9        0.000000        0.295167         3    ;  uncertainty k = 0.320461
         5         4         3         8     9      180.000000        1.237128         4    ;  uncertainty k = 0.247375
         5         6         7        28     9        0.000000       -0.011098         1    ;  uncertainty k = 0.288711
         5         6         7        28     9      180.000000       18.092430         2    ;  uncertainty k = 0.370439
         5         6         7        28     9        0.000000        2.269080         3    ;  uncertainty k = 0.574591
         5         6         7        28     9      180.000000        1.381921         4    ;  uncertainty k = 0.379831
         5        12        13        14     9        0.000000        3.535237         1    ;  uncertainty k = 1.231604
         5        12        13        14     9      180.000000       13.292274         2    ;  uncertainty k = 0.292094
         5        12        13        14     9        0.000000        1.743436         3    ;  uncertainty k = 0.238644
         5        12        13        14     9      180.000000       -1.671523         4    ;  uncertainty k = 0.469692
         5        12        13        32     9        0.000000       -0.013256         1    ;  uncertainty k = 0.444436
         5        12        13        32     9      180.000000        7.631644         2    ;  uncertainty k = 0.702756
         5        12        13        32     9        0.000000        2.411566         3    ;  uncertainty k = 0.160861
         5        12        13        32     9      180.000000        0.143784         4    ;  uncertainty k = 0.405306
         6         5         4        27     9        0.000000        0.004087         1    ;  uncertainty k = 0.506946
         6         5         4        27     9      180.000000        8.960192         2    ;  uncertainty k = 0.576506
         6         5         4        27     9        0.000000        1.000299         3    ;  uncertainty k = 0.287421
         6         5         4        27     9      180.000000        1.566038         4    ;  uncertainty k = 0.227548
         6         5        12        13     9        0.000000        3.370981         1    ;  uncertainty k = 1.696339
         6         5        12        13     9      180.000000        3.566893         2    ;  uncertainty k = 0.514128
         6         5        12        13     9        0.000000       -0.192251         3    ;  uncertainty k = 0.257556
         6         5        12        13     9      180.000000        0.132942         4    ;  uncertainty k = 0.111189
         6         5        12        15     9        0.000000       -3.633951         1    ;  uncertainty k = 1.540532
         6         5        12        15     9      180.000000        3.883931         2    ;  uncertainty k = 0.512079
         6         5        12        15     9        0.000000        0.805722         3    ;  uncertainty k = 0.153508
         6         5        12        15     9      180.000000        0.073262         4    ;  uncertainty k = 0.055684
         6         7         1        11     9        0.000000       -0.219337         1    ;  uncertainty k = 0.290346
         6         7         1        11     9      180.000000        8.433341         2    ;  uncertainty k = 0.426683
         6         7         1        11     9        0.000000        0.251477         3    ;  uncertainty k = 0.247129
         6         7         1        11     9      180.000000        1.285809         4    ;  uncertainty k = 0.135385
         7         1         3         8     9        0.000000       -0.360608         1    ;  uncertainty k = 0.632425
         7         1         3         8     9      180.000000        6.944337         2    ;  uncertainty k = 0.864221
         7         1         3         8     9        0.000000        0.047561         3    ;  uncertainty k = 0.297494
         7         1         3         8     9      180.000000        1.491672         4    ;  uncertainty k = 0.447622
         7         1        11        10     9        0.000000        0.065623         1    ;  uncertainty k = 0.196384
         7         1        11        10     9      180.000000        8.812009         2    ;  uncertainty k = 0.586454
         7         1        11        10     9        0.000000        0.523077         3    ;  uncertainty k = 0.360415
         7         1        11        10     9      180.000000        1.565539         4    ;  uncertainty k = 0.273099
         7         1        11        31     9        0.000000       -0.121079         1    ;  uncertainty k = 0.609799
         7         1        11        31     9      180.000000        6.341309         2    ;  uncertainty k = 0.689801
         7         1        11        31     9        0.000000        1.052380         3    ;  uncertainty k = 0.050273
         7         1        11        31     9      180.000000        1.064668         4    ;  uncertainty k = 0.144434
         7         6         5        12     9        0.000000        0.713000         1    ;  uncertainty k = 1.512018
         7         6         5        12     9      180.000000       11.305747         2    ;  uncertainty k = 0.639643
         7         6         5        12     9        0.000000        2.410340         3    ;  uncertainty k = 0.155747
         7         6         5        12     9      180.000000        1.409862         4    ;  uncertainty k = 0.503880
         8         3         1        11     9        0.000000       -0.246845         1    ;  uncertainty k = 0.242547
         8         3         1        11     9      180.000000        7.227095         2    ;  uncertainty k = 0.646321
         8         3         1        11     9        0.000000        0.199378         3    ;  uncertainty k = 0.261921
         8         3         1        11     9      180.000000        1.480142         4    ;  uncertainty k = 0.301585
         8         3         4        27     9        0.000000       -0.053561         1    ;  uncertainty k = 0.223653
         8         3         4        27     9      180.000000        6.365487         2    ;  uncertainty k = 0.373916
         8         3         4        27     9        0.000000        1.073835         3    ;  uncertainty k = 0.313880
         8         3         4        27     9      180.000000        1.190022         4    ;  uncertainty k = 0.203294
         8         9        10        11     9        0.000000       -0.112104         1    ;  uncertainty k = 0.427537
         8         9        10        11     9      180.000000        7.179343         2    ;  uncertainty k = 0.645686
         8         9        10        11     9        0.000000        0.071840         3    ;  uncertainty k = 0.457252
         8         9        10        11     9      180.000000        1.171177         4    ;  uncertainty k = 0.270610
         9        10        11        31     9        0.000000        0.087048         1    ;  uncertainty k = 0.255043
         9        10        11        31     9      180.000000        7.435569         2    ;  uncertainty k = 0.467619
         9        10        11        31     9        0.000000        1.536411         3    ;  uncertainty k = 0.352464
         9        10        11        31     9      180.000000        1.723391         4    ;  uncertainty k = 0.127682
        10         9         8        29     9        0.000000        0.022316         1    ;  uncertainty k = 0.131827
        10         9         8        29     9      180.000000        9.708964         2    ;  uncertainty k = 0.433238
        10         9         8        29     9        0.000000        1.515279         3    ;  uncertainty k = 0.276178
        10         9         8        29     9      180.000000        2.015919         4    ;  uncertainty k = 0.361267
        11         1         7        28     9        0.000000       -0.631911         1    ;  uncertainty k = 0.529090
        11         1         7        28     9      180.000000        5.121341         2    ;  uncertainty k = 0.583914
        11         1         7        28     9        0.000000        0.861496         3    ;  uncertainty k = 0.258414
        11         1         7        28     9      180.000000        0.718398         4    ;  uncertainty k = 0.291582
        11        10         9        30     9        0.000000       -0.053868         1    ;  uncertainty k = 0.229709
        11        10         9        30     9      180.000000        5.235276         2    ;  uncertainty k = 0.615886
        11        10         9        30     9        0.000000        1.183873         3    ;  uncertainty k = 0.205961
        11        10         9        30     9      180.000000        1.287008         4    ;  uncertainty k = 0.131172
        12         5         4        27     9        0.000000       -0.196145         1    ;  uncertainty k = 0.802283
        12         5         4        27     9      180.000000        8.074805         2    ;  uncertainty k = 0.445960
        12         5         4        27     9        0.000000        0.968601         3    ;  uncertainty k = 0.265919
        12         5         4        27     9      180.000000        1.027153         4    ;  uncertainty k = 0.424434
        12        13        14        16     9        0.000000        1.021276         1    ;  uncertainty k = 0.338035
        12        13        14        16     9      180.000000        0.109210         2    ;  uncertainty k = 0.290772
        12        13        14        16     9        0.000000       -0.140187         3    ;  uncertainty k = 0.144590
        12        13        14        16     9      180.000000        0.523566         4    ;  uncertainty k = 0.324153
        12        13        14        20     9        0.000000        0.519761         1    ;  uncertainty k = 0.168571
        12        13        14        20     9      180.000000        0.200583         2    ;  uncertainty k = 0.326857
        12        13        14        20     9        0.000000        0.115378         3    ;  uncertainty k = 0.099475
        12        13        14        20     9      180.000000        0.385402         4    ;  uncertainty k = 0.148377
        12        13        14        33     9        0.000000        1.161323         1    ;  uncertainty k = 0.341820
        12        13        14        33     9      180.000000       -0.416370         2    ;  uncertainty k = 0.277998
        12        13        14        33     9        0.000000        0.099057         3    ;  uncertainty k = 0.164489
        12        13        14        33     9      180.000000        0.187616         4    ;  uncertainty k = 0.082148
        13        14        16        17     9        0.000000       -2.929606         1    ;  uncertainty k = 0.998341
        13        14        16        17     9      180.000000       -0.180445         2    ;  uncertainty k = 0.371780
        13        14        16        17     9        0.000000        0.575143         3    ;  uncertainty k = 0.178425
        13        14        16        17     9      180.000000       -0.034488         4    ;  uncertainty k = 0.148568
        13        14        16        21     9        0.000000        0.277839         1    ;  uncertainty k = 1.039180
        13        14        16        21     9      180.000000       -1.190355         2    ;  uncertainty k = 0.725586
        13        14        16        21     9        0.000000        0.382144         3    ;  uncertainty k = 0.370685
        13        14        16        21     9      180.000000       -0.046927         4    ;  uncertainty k = 0.381215
        13        14        16        69     9        0.000000        0.056426         1    ;  uncertainty k = 1.183712
        13        14        16        69     9      180.000000       -1.388745         2    ;  uncertainty k = 0.461125
        13        14        16        69     9        0.000000        0.506203         3    ;  uncertainty k = 0.255976
        13        14        16        69     9      180.000000       -0.266344         4    ;  uncertainty k = 0.119538
        13        14        20        19     9        0.000000       -4.336160         1    ;  uncertainty k = 0.834314
        13        14        20        19     9      180.000000        0.402056         2    ;  uncertainty k = 0.265311
        13        14        20        19     9        0.000000        0.870517         3    ;  uncertainty k = 0.116769
        13        14        20        19     9      180.000000       -0.148088         4    ;  uncertainty k = 0.103170
        13        14        20        61     9        0.000000       -0.347206         1    ;  uncertainty k = 0.688546
        13        14        20        61     9      180.000000       -1.374933         2    ;  uncertainty k = 0.325135
        13        14        20        61     9        0.000000        0.949615         3    ;  uncertainty k = 0.108969
        13        14        20        61     9      180.000000       -0.291888         4    ;  uncertainty k = 0.078035
        13        14        20        62     9        0.000000       -0.347206         1    ;  uncertainty k = 0.688546
        13        14        20        62     9      180.000000       -1.374933         2    ;  uncertainty k = 0.325135
        13        14        20        62     9        0.000000        0.949615         3    ;  uncertainty k = 0.108969
        13        14        20        62     9      180.000000       -0.291888         4    ;  uncertainty k = 0.078035
        14        13        12        15     9        0.000000        4.282482         1    ;  uncertainty k = 1.608440
        14        13        12        15     9      180.000000       14.591256         2    ;  uncertainty k = 0.226661
        14        13        12        15     9        0.000000        0.234569         3    ;  uncertainty k = 0.107489
        14        13        12        15     9      180.000000       -0.535099         4    ;  uncertainty k = 0.152472
        14        16        17        18     9        0.000000       -1.422268         1    ;  uncertainty k = 2.687840
        14        16        17        18     9      180.000000       -1.372244         2    ;  uncertainty k = 1.266315
        14        16        17        18     9        0.000000        0.520722         3    ;  uncertainty k = 0.498083
        14        16        17        18     9      180.000000       -1.215413         4    ;  uncertainty k = 0.210469
        14        16        17        56     9        0.000000       -0.883136         1    ;  uncertainty k = 0.508196
        14        16        17        56     9      180.000000       -0.614929         2    ;  uncertainty k = 0.175084
        14        16        17        56     9        0.000000        0.124594         3    ;  uncertainty k = 0.064034
        14        16        17        56     9      180.000000       -0.135751         4    ;  uncertainty k = 0.114004
        14        16        17        57     9        0.000000       -0.883136         1    ;  uncertainty k = 0.508196
        14        16        17        57     9      180.000000       -0.614929         2    ;  uncertainty k = 0.175084
        14        16        17        57     9        0.000000        0.124594         3    ;  uncertainty k = 0.064034
        14        16        17        57     9      180.000000       -0.135751         4    ;  uncertainty k = 0.114004
        14        16        21        22     9        0.000000        0.794846         1    ;  uncertainty k = 0.604396
        14        16        21        22     9      180.000000        0.224272         2    ;  uncertainty k = 0.185685
        14        16        21        22     9        0.000000       -0.089245         3    ;  uncertainty k = 0.110265
        14        16        21        22     9      180.000000        0.458816         4    ;  uncertainty k = 0.210243
        14        16        21        34     9        0.000000        2.683155         1    ;  uncertainty k = 0.609086
        14        16        21        34     9      180.000000       -1.562794         2    ;  uncertainty k = 0.401578
        14        16        21        34     9        0.000000        0.519888         3    ;  uncertainty k = 0.250676
        14        16        21        34     9      180.000000        0.165823         4    ;  uncertainty k = 0.146369
        14        20        19        18     9        0.000000       -5.573238         1    ;  uncertainty k = 0.727025
        14        20        19        18     9      180.000000       -1.078323         2    ;  uncertainty k = 0.651288
        14        20        19        18     9        0.000000        1.425236         3    ;  uncertainty k = 0.144828
        14        20        19        18     9      180.000000       -1.198239         4    ;  uncertainty k = 0.215276
        14        20        19        59     9        0.000000       -1.161760         1    ;  uncertainty k = 0.416585
        14        20        19        59     9      180.000000       -0.677761         2    ;  uncertainty k = 0.277437
        14        20        19        59     9        0.000000        0.404336         3    ;  uncertainty k = 0.184873
        14        20        19        59     9      180.000000       -0.085548         4    ;  uncertainty k = 0.032870
        14        20        19        60     9        0.000000       -1.161760         1    ;  uncertainty k = 0.416585
        14        20        19        60     9      180.000000       -0.677761         2    ;  uncertainty k = 0.277437
        14        20        19        60     9        0.000000        0.404336         3    ;  uncertainty k = 0.184873
        14        20        19        60     9      180.000000       -0.085548         4    ;  uncertainty k = 0.032870
        15        12        13        32     9        0.000000        2.056932         1    ;  uncertainty k = 0.514440
        15        12        13        32     9      180.000000       15.468124         2    ;  uncertainty k = 0.365212
        15        12        13        32     9        0.000000        1.904993         3    ;  uncertainty k = 0.296309
        15        12        13        32     9      180.000000       -0.277438         4    ;  uncertainty k = 0.217658
        16        14        13        32     9        0.000000        2.670258         1    ;  uncertainty k = 0.475613
        16        14        13        32     9      180.000000       -1.468025         2    ;  uncertainty k = 0.283997
        16        14        13        32     9        0.000000        0.487826         3    ;  uncertainty k = 0.245449
        16        14        13        32     9      180.000000        0.136513         4    ;  uncertainty k = 0.142462
        16        14        20        19     9        0.000000       -4.769725         1    ;  uncertainty k = 1.415166
        16        14        20        19     9      180.000000        0.201537         2    ;  uncertainty k = 0.751947
        16        14        20        19     9        0.000000        0.925807         3    ;  uncertainty k = 0.341424
        16        14        20        19     9      180.000000       -1.207936         4    ;  uncertainty k = 0.157739
        16        14        20        61     9        0.000000       -0.721620         1    ;  uncertainty k = 0.641095
        16        14        20        61     9      180.000000       -0.679473         2    ;  uncertainty k = 0.270082
        16        14        20        61     9        0.000000        0.104003         3    ;  uncertainty k = 0.043100
        16        14        20        61     9      180.000000       -0.120906         4    ;  uncertainty k = 0.094153
        16        14        20        62     9        0.000000       -0.721620         1    ;  uncertainty k = 0.641095
        16        14        20        62     9      180.000000       -0.679473         2    ;  uncertainty k = 0.270082
        16        14        20        62     9        0.000000        0.104003         3    ;  uncertainty k = 0.043100
        16        14        20        62     9      180.000000       -0.120906         4    ;  uncertainty k = 0.094153
        16        17        18        19     9        0.000000       -3.684684         1    ;  uncertainty k = 1.555404
        16        17        18        19     9      180.000000       -0.286572         2    ;  uncertainty k = 0.574153
        16        17        18        19     9        0.000000        0.981635         3    ;  uncertainty k = 0.134172
        16        17        18        19     9      180.000000       -1.149549         4    ;  uncertainty k = 0.220596
        16        17        18        51     9        0.000000       -1.988663         1    ;  uncertainty k = 0.821936
        16        17        18        51     9      180.000000       -0.960549         2    ;  uncertainty k = 0.272982
        16        17        18        51     9        0.000000        0.443546         3    ;  uncertainty k = 0.317502
        16        17        18        51     9      180.000000        0.183458         4    ;  uncertainty k = 0.094088
        16        17        18        58     9        0.000000       -1.929217         1    ;  uncertainty k = 0.461104
        16        17        18        58     9      180.000000       -0.447748         2    ;  uncertainty k = 0.220193
        16        17        18        58     9        0.000000        0.087566         3    ;  uncertainty k = 0.087859
        16        17        18        58     9      180.000000       -0.164482         4    ;  uncertainty k = 0.141866
        16        21        22        23     9        0.000000        3.958068         1    ;  uncertainty k = 1.380043
        16        21        22        23     9      180.000000       12.511831         2    ;  uncertainty k = 0.156026
        16        21        22        23     9        0.000000        1.263553         3    ;  uncertainty k = 0.259475
        16        21        22        23     9      180.000000       -1.435052         4    ;  uncertainty k = 0.493362
        16        21        22        24     9        0.000000        4.206341         1    ;  uncertainty k = 1.055487
        16        21        22        24     9      180.000000       13.261930         2    ;  uncertainty k = 0.104052
        16        21        22        24     9        0.000000        0.422296         3    ;  uncertainty k = 0.282045
        16        21        22        24     9      180.000000       -0.345763         4    ;  uncertainty k = 0.133307
        17        16        14        20     9        0.000000       -1.470264         1    ;  uncertainty k = 2.461753
        17        16        14        20     9      180.000000        0.524671         2    ;  uncertainty k = 0.969946
        17        16        14        20     9        0.000000        0.425296         3    ;  uncertainty k = 0.508322
        17        16        14        20     9      180.000000       -1.120347         4    ;  uncertainty k = 0.264941
        17        16        14        33     9        0.000000       -1.280058         1    ;  uncertainty k = 0.301450
        17        16        14        33     9      180.000000       -0.208066         2    ;  uncertainty k = 0.248022
        17        16        14        33     9        0.000000       -0.234106         3    ;  uncertainty k = 0.060789
        17        16        14        33     9      180.000000       -0.145743         4    ;  uncertainty k = 0.047964
        17        16        21        22     9        0.000000        0.364606         1    ;  uncertainty k = 0.383608
        17        16        21        22     9      180.000000        0.211641         2    ;  uncertainty k = 0.299414
        17        16        21        22     9        0.000000        0.181029         3    ;  uncertainty k = 0.072944
        17        16        21        22     9      180.000000        0.342393         4    ;  uncertainty k = 0.127149
        17        16        21        34     9        0.000000        0.945683         1    ;  uncertainty k = 0.464115
        17        16        21        34     9      180.000000       -0.514672         2    ;  uncertainty k = 0.347973
        17        16        21        34     9        0.000000        0.327272         3    ;  uncertainty k = 0.178732
        17        16        21        34     9      180.000000        0.059847         4    ;  uncertainty k = 0.085826
        17        18        19        20     9        0.000000       -5.487573         1    ;  uncertainty k = 0.618648
        17        18        19        20     9      180.000000        0.628450         2    ;  uncertainty k = 0.548060
        17        18        19        20     9        0.000000        1.367560         3    ;  uncertainty k = 0.173350
        17        18        19        20     9      180.000000       -1.033143         4    ;  uncertainty k = 0.273102
        17        18        19        59     9        0.000000       -1.226844         1    ;  uncertainty k = 0.266748
        17        18        19        59     9      180.000000       -0.345485         2    ;  uncertainty k = 0.101300
        17        18        19        59     9        0.000000        0.394880         3    ;  uncertainty k = 0.108227
        17        18        19        59     9      180.000000       -0.070781         4    ;  uncertainty k = 0.048007
        17        18        19        60     9        0.000000       -1.226844         1    ;  uncertainty k = 0.266748
        17        18        19        60     9      180.000000       -0.345485         2    ;  uncertainty k = 0.101300
        17        18        19        60     9        0.000000        0.394880         3    ;  uncertainty k = 0.108227
        17        18        19        60     9      180.000000       -0.070781         4    ;  uncertainty k = 0.048007
        17        18        51        52     9        0.000000       -1.170185         1    ;  uncertainty k = 0.334655
        17        18        51        52     9      180.000000        4.880266         2    ;  uncertainty k = 0.323686
        17        18        51        52     9        0.000000        1.279706         3    ;  uncertainty k = 0.118363
        17        18        51        52     9      180.000000        0.575624         4    ;  uncertainty k = 0.083005
        17        18        51        53     9        0.000000       -1.631697         1    ;  uncertainty k = 0.279350
        17        18        51        53     9      180.000000        3.392199         2    ;  uncertainty k = 0.510159
        17        18        51        53     9        0.000000        0.814553         3    ;  uncertainty k = 0.127255
        17        18        51        53     9      180.000000        0.128487         4    ;  uncertainty k = 0.053904
        18        17        16        21     9        0.000000       -2.824384         1    ;  uncertainty k = 0.488217
        18        17        16        21     9      180.000000       -0.460507         2    ;  uncertainty k = 0.536155
        18        17        16        21     9        0.000000        0.759551         3    ;  uncertainty k = 0.189386
        18        17        16        21     9      180.000000       -0.140203         4    ;  uncertainty k = 0.174781
        18        17        16        69     9        0.000000       -0.730287         1    ;  uncertainty k = 0.498293
        18        17        16        69     9      180.000000       -0.792172         2    ;  uncertainty k = 0.456680
        18        17        16        69     9        0.000000       -0.041965         3    ;  uncertainty k = 0.196130
        18        17        16        69     9      180.000000       -0.091310         4    ;  uncertainty k = 0.082273
        18        19        20        61     9        0.000000       -1.242829         1    ;  uncertainty k = 0.333977
        18        19        20        61     9      180.000000       -0.548741         2    ;  uncertainty k = 0.201763
        18        19        20        61     9        0.000000        0.486940         3    ;  uncertainty k = 0.161944
        18        19        20        61     9      180.000000       -0.063210         4    ;  uncertainty k = 0.051028
        18        19        20        62     9        0.000000       -1.242829         1    ;  uncertainty k = 0.333977
        18        19        20        62     9      180.000000       -0.548741         2    ;  uncertainty k = 0.201763
        18        19        20        62     9        0.000000        0.486940         3    ;  uncertainty k = 0.161944
        18        19        20        62     9      180.000000       -0.063210         4    ;  uncertainty k = 0.051028
        18        51        53        54     9        0.000000        9.050821         1    ;  uncertainty k = 0.304912
        18        51        53        54     9      180.000000        6.374692         2    ;  uncertainty k = 0.405917
        18        51        53        54     9        0.000000        1.178678         3    ;  uncertainty k = 0.297789
        18        51        53        54     9      180.000000        0.054538         4    ;  uncertainty k = 0.124306
        18        51        53        55     9        0.000000        9.050821         1    ;  uncertainty k = 0.304912
        18        51        53        55     9      180.000000        6.374692         2    ;  uncertainty k = 0.405917
        18        51        53        55     9        0.000000        1.178678         3    ;  uncertainty k = 0.297789
        18        51        53        55     9      180.000000        0.054538         4    ;  uncertainty k = 0.124306
        19        18        17        56     9        0.000000       -1.411123         1    ;  uncertainty k = 0.345622
        19        18        17        56     9      180.000000       -0.225290         2    ;  uncertainty k = 0.172594
        19        18        17        56     9        0.000000        0.346843         3    ;  uncertainty k = 0.114252
        19        18        17        56     9      180.000000       -0.038457         4    ;  uncertainty k = 0.044896
        19        18        17        57     9        0.000000       -1.411123         1    ;  uncertainty k = 0.345622
        19        18        17        57     9      180.000000       -0.225290         2    ;  uncertainty k = 0.172594
        19        18        17        57     9        0.000000        0.346843         3    ;  uncertainty k = 0.114252
        19        18        17        57     9      180.000000       -0.038457         4    ;  uncertainty k = 0.044896
        19        18        51        52     9        0.000000       -1.412751         1    ;  uncertainty k = 0.366362
        19        18        51        52     9      180.000000        4.939282         2    ;  uncertainty k = 0.250194
        19        18        51        52     9        0.000000        1.341107         3    ;  uncertainty k = 0.099404
        19        18        51        52     9      180.000000        0.562838         4    ;  uncertainty k = 0.064019
        19        18        51        53     9        0.000000       -1.501807         1    ;  uncertainty k = 0.463410
        19        18        51        53     9      180.000000        3.323275         2    ;  uncertainty k = 0.502078
        19        18        51        53     9        0.000000        0.807080         3    ;  uncertainty k = 0.124119
        19        18        51        53     9      180.000000        0.125518         4    ;  uncertainty k = 0.039696
        19        20        14        33     9        0.000000       -1.467742         1    ;  uncertainty k = 0.302096
        19        20        14        33     9      180.000000       -0.257258         2    ;  uncertainty k = 0.240113
        19        20        14        33     9        0.000000        0.030321         3    ;  uncertainty k = 0.101962
        19        20        14        33     9      180.000000       -0.152013         4    ;  uncertainty k = 0.107484
        20        14        13        32     9        0.000000        0.649484         1    ;  uncertainty k = 0.759147
        20        14        13        32     9      180.000000       -0.410893         2    ;  uncertainty k = 0.331803
        20        14        13        32     9        0.000000        0.271344         3    ;  uncertainty k = 0.117734
        20        14        13        32     9      180.000000        0.018992         4    ;  uncertainty k = 0.076965
        20        14        16        21     9        0.000000       -2.812770         1    ;  uncertainty k = 0.476021
        20        14        16        21     9      180.000000       -0.110266         2    ;  uncertainty k = 0.376076
        20        14        16        21     9        0.000000        0.581736         3    ;  uncertainty k = 0.177495
        20        14        16        21     9      180.000000       -0.070447         4    ;  uncertainty k = 0.196410
        20        14        16        69     9        0.000000       -1.253602         1    ;  uncertainty k = 0.261135
        20        14        16        69     9      180.000000       -0.299214         2    ;  uncertainty k = 0.366643
        20        14        16        69     9        0.000000       -0.218863         3    ;  uncertainty k = 0.083190
        20        14        16        69     9      180.000000       -0.165690         4    ;  uncertainty k = 0.068380
        20        19        18        51     9        0.000000       -3.042856         1    ;  uncertainty k = 1.255460
        20        19        18        51     9      180.000000       -0.384066         2    ;  uncertainty k = 0.506050
        20        19        18        51     9        0.000000        0.568068         3    ;  uncertainty k = 0.143563
        20        19        18        51     9      180.000000        0.123689         4    ;  uncertainty k = 0.149073
        20        19        18        58     9        0.000000       -2.461228         1    ;  uncertainty k = 0.396150
        20        19        18        58     9      180.000000        0.138744         2    ;  uncertainty k = 0.107060
        20        19        18        58     9        0.000000        0.248333         3    ;  uncertainty k = 0.111967
        20        19        18        58     9      180.000000       -0.235150         4    ;  uncertainty k = 0.140386
        21        16        14        33     9        0.000000        0.062344         1    ;  uncertainty k = 1.100183
        21        16        14        33     9      180.000000       -1.469345         2    ;  uncertainty k = 0.520599
        21        16        14        33     9        0.000000        0.495032         3    ;  uncertainty k = 0.272668
        21        16        14        33     9      180.000000       -0.255767         4    ;  uncertainty k = 0.119865
        21        16        17        56     9        0.000000       -0.427435         1    ;  uncertainty k = 0.715503
        21        16        17        56     9      180.000000       -1.219759         2    ;  uncertainty k = 0.324042
        21        16        17        56     9        0.000000        0.959594         3    ;  uncertainty k = 0.057792
        21        16        17        56     9      180.000000       -0.287421         4    ;  uncertainty k = 0.054437
        21        16        17        57     9        0.000000       -0.427435         1    ;  uncertainty k = 0.715503
        21        16        17        57     9      180.000000       -1.219759         2    ;  uncertainty k = 0.324042
        21        16        17        57     9        0.000000        0.959594         3    ;  uncertainty k = 0.057792
        21        16        17        57     9      180.000000       -0.287421         4    ;  uncertainty k = 0.054437
        21        22        23        25     9        0.000000        2.331066         1    ;  uncertainty k = 1.152102
        21        22        23        25     9      180.000000        2.596169         2    ;  uncertainty k = 0.278815
        21        22        23        25     9        0.000000        0.009927         3    ;  uncertainty k = 0.144977
        21        22        23        25     9      180.000000       -0.114334         4    ;  uncertainty k = 0.149289
        21        22        23        26     9        0.000000        3.367960         1    ;  uncertainty k = 1.051353
        21        22        23        26     9      180.000000        3.218021         2    ;  uncertainty k = 0.680396
        21        22        23        26     9        0.000000        1.143577         3    ;  uncertainty k = 0.311002
        21        22        23        26     9      180.000000       -0.348976         4    ;  uncertainty k = 0.193639
        22        21        16        69     9        0.000000        1.089648         1    ;  uncertainty k = 0.334910
        22        21        16        69     9      180.000000       -0.432136         2    ;  uncertainty k = 0.173910
        22        21        16        69     9        0.000000        0.083475         3    ;  uncertainty k = 0.110493
        22        21        16        69     9      180.000000        0.217577         4    ;  uncertainty k = 0.051810
        22        23        25        35     9        0.000000        0.338836         1    ;  uncertainty k = 0.784673
        22        23        25        35     9      180.000000       19.192857         2    ;  uncertainty k = 0.359716
        22        23        25        35     9        0.000000        1.903447         3    ;  uncertainty k = 0.386883
        22        23        25        35     9      180.000000        1.368535         4    ;  uncertainty k = 0.528772
        22        23        26        36     9        0.000000        0.370727         1    ;  uncertainty k = 1.804242
        22        23        26        36     9      180.000000        8.920830         2    ;  uncertainty k = 1.081273
        22        23        26        36     9        0.000000        0.589745         3    ;  uncertainty k = 1.110553
        22        23        26        36     9      180.000000        0.676613         4    ;  uncertainty k = 0.547063
        23        22        21        34     9        0.000000       -0.086051         1    ;  uncertainty k = 0.569285
        23        22        21        34     9      180.000000        6.824223         2    ;  uncertainty k = 1.004102
        23        22        21        34     9        0.000000        2.774672         3    ;  uncertainty k = 0.278048
        23        22        21        34     9      180.000000        0.087878         4    ;  uncertainty k = 0.345011
        23        25        35        36     9        0.000000       -0.476241         1    ;  uncertainty k = 0.425307
        23        25        35        36     9      180.000000       15.671500         2    ;  uncertainty k = 0.795841
        23        25        35        36     9        0.000000       -2.864533         3    ;  uncertainty k = 0.780902
        23        25        35        36     9      180.000000        1.605024         4    ;  uncertainty k = 0.448125
        23        25        35        40     9        0.000000        0.569206         1    ;  uncertainty k = 1.621980
        23        25        35        40     9      180.000000       12.800205         2    ;  uncertainty k = 0.282748
        23        25        35        40     9        0.000000        1.817073         3    ;  uncertainty k = 0.361654
        23        25        35        40     9      180.000000        0.682642         4    ;  uncertainty k = 0.136948
        23        26        36        35     9        0.000000       -0.523789         1    ;  uncertainty k = 1.004169
        23        26        36        35     9      180.000000       13.442345         2    ;  uncertainty k = 0.923619
        23        26        36        35     9        0.000000       -9.024257         3    ;  uncertainty k = 1.660071
        23        26        36        35     9      180.000000        1.636793         4    ;  uncertainty k = 0.487983
        23        26        36        37     9        0.000000        1.116166         1    ;  uncertainty k = 1.266411
        23        26        36        37     9      180.000000       10.158909         2    ;  uncertainty k = 0.818049
        23        26        36        37     9        0.000000        0.724355         3    ;  uncertainty k = 0.566010
        23        26        36        37     9      180.000000       -0.026620         4    ;  uncertainty k = 0.200593
        24        22        21        34     9        0.000000        2.038363         1    ;  uncertainty k = 0.746143
        24        22        21        34     9      180.000000       14.699346         2    ;  uncertainty k = 0.325315
        24        22        21        34     9        0.000000        1.840592         3    ;  uncertainty k = 0.226058
        24        22        21        34     9      180.000000       -0.518143         4    ;  uncertainty k = 0.264067
        24        22        23        25     9        0.000000       -0.975565         1    ;  uncertainty k = 1.614283
        24        22        23        25     9      180.000000        3.488550         2    ;  uncertainty k = 0.286154
        24        22        23        25     9        0.000000        0.632000         3    ;  uncertainty k = 0.220397
        24        22        23        25     9      180.000000        0.223278         4    ;  uncertainty k = 0.063243
        24        22        23        26     9        0.000000       -0.928770         1    ;  uncertainty k = 0.780300
        24        22        23        26     9      180.000000        4.634695         2    ;  uncertainty k = 0.475093
        24        22        23        26     9        0.000000        0.007574         3    ;  uncertainty k = 0.071977
        24        22        23        26     9      180.000000        0.288910         4    ;  uncertainty k = 0.240907
        25        23        26        36     9        0.000000        0.143511         1    ;  uncertainty k = 1.333641
        25        23        26        36     9      180.000000       14.564367         2    ;  uncertainty k = 1.374348
        25        23        26        36     9        0.000000       -9.893199         3    ;  uncertainty k = 1.620531
        25        23        26        36     9      180.000000        1.663619         4    ;  uncertainty k = 0.759588
        25        35        36        26     9        0.000000        0.087022         1    ;  uncertainty k = 0.519435
        25        35        36        26     9      180.000000       17.308740         2    ;  uncertainty k = 0.865665
        25        35        36        26     9        0.000000       -2.374264         3    ;  uncertainty k = 0.748324
        25        35        36        26     9      180.000000        1.160228         4    ;  uncertainty k = 0.641111
        25        35        36        37     9        0.000000        0.011055         1    ;  uncertainty k = 0.425259
        25        35        36        37     9      180.000000       14.953749         2    ;  uncertainty k = 0.328993
        25        35        36        37     9        0.000000        1.241934         3    ;  uncertainty k = 0.342959
        25        35        36        37     9      180.000000        1.144042         4    ;  uncertainty k = 0.470191
        25        35        40        39     9        0.000000       -3.954572         1    ;  uncertainty k = 1.035742
        25        35        40        39     9      180.000000        1.199577         2    ;  uncertainty k = 0.494541
        25        35        40        39     9        0.000000        0.552603         3    ;  uncertainty k = 0.196554
        25        35        40        39     9      180.000000        0.408701         4    ;  uncertainty k = 0.071879
        25        35        40        46     9        0.000000        0.678330         1    ;  uncertainty k = 0.150352
        25        35        40        46     9      180.000000        1.438459         2    ;  uncertainty k = 0.504096
        25        35        40        46     9        0.000000        0.609129         3    ;  uncertainty k = 0.196471
        25        35        40        46     9      180.000000        0.167234         4    ;  uncertainty k = 0.108981
        25        35        40        47     9        0.000000        0.678330         1    ;  uncertainty k = 0.150352
        25        35        40        47     9      180.000000        1.438459         2    ;  uncertainty k = 0.504096
        25        35        40        47     9        0.000000        0.609129         3    ;  uncertainty k = 0.196471
        25        35        40        47     9      180.000000        0.167234         4    ;  uncertainty k = 0.108981
        26        23        25        35     9        0.000000       -0.152600         1    ;  uncertainty k = 0.906407
        26        23        25        35     9      180.000000       20.432965         2    ;  uncertainty k = 0.275340
        26        23        25        35     9        0.000000       -2.337892         3    ;  uncertainty k = 1.016825
        26        23        25        35     9      180.000000        1.938626         4    ;  uncertainty k = 0.362221
        26        36        35        40     9        0.000000        0.239944         1    ;  uncertainty k = 0.547138
        26        36        35        40     9      180.000000       12.400727         2    ;  uncertainty k = 0.549556
        26        36        35        40     9        0.000000        0.936373         3    ;  uncertainty k = 0.318788
        26        36        35        40     9      180.000000        0.958147         4    ;  uncertainty k = 0.190163
        26        36        37        38     9        0.000000       -8.471687         1    ;  uncertainty k = 1.305576
        26        36        37        38     9      180.000000       -0.738803         2    ;  uncertainty k = 0.986263
        26        36        37        38     9        0.000000        0.572190         3    ;  uncertainty k = 0.535086
        26        36        37        38     9      180.000000        0.223231         4    ;  uncertainty k = 0.263405
        26        36        37        42     9        0.000000        0.153964         1    ;  uncertainty k = 0.629108
        26        36        37        42     9      180.000000        0.393717         2    ;  uncertainty k = 0.317135
        26        36        37        42     9        0.000000        0.658149         3    ;  uncertainty k = 0.161833
        26        36        37        42     9      180.000000       -0.071880         4    ;  uncertainty k = 0.067074
        26        36        37        43     9        0.000000        0.153964         1    ;  uncertainty k = 0.629108
        26        36        37        43     9      180.000000        0.393717         2    ;  uncertainty k = 0.317135
        26        36        37        43     9        0.000000        0.658149         3    ;  uncertainty k = 0.161833
        26        36        37        43     9      180.000000       -0.071880         4    ;  uncertainty k = 0.067074
        29         8         9        30     9        0.000000       -0.108410         1    ;  uncertainty k = 0.199167
        29         8         9        30     9      180.000000        8.976835         2    ;  uncertainty k = 0.533413
        29         8         9        30     9        0.000000       -0.243410         3    ;  uncertainty k = 0.225123
        29         8         9        30     9      180.000000        0.199317         4    ;  uncertainty k = 0.229829
        32        13        14        33     9        0.000000        0.452020         1    ;  uncertainty k = 0.501790
        32        13        14        33     9      180.000000       -0.491071         2    ;  uncertainty k = 0.200566
        32        13        14        33     9        0.000000        0.149539         3    ;  uncertainty k = 0.145251
        32        13        14        33     9      180.000000        0.209514         4    ;  uncertainty k = 0.065885
        33        14        16        69     9        0.000000        1.517630         1    ;  uncertainty k = 0.278770
        33        14        16        69     9      180.000000       -0.677363         2    ;  uncertainty k = 0.157231
        33        14        16        69     9        0.000000       -0.219450         3    ;  uncertainty k = 0.164898
        33        14        16        69     9      180.000000       -0.045434         4    ;  uncertainty k = 0.124459
        33        14        20        61     9        0.000000        1.377005         1    ;  uncertainty k = 0.283194
        33        14        20        61     9      180.000000       -0.510553         2    ;  uncertainty k = 0.208115
        33        14        20        61     9        0.000000       -0.078579         3    ;  uncertainty k = 0.110925
        33        14        20        61     9      180.000000        0.041475         4    ;  uncertainty k = 0.028475
        33        14        20        62     9        0.000000        1.377005         1    ;  uncertainty k = 0.283194
        33        14        20        62     9      180.000000       -0.510553         2    ;  uncertainty k = 0.208115
        33        14        20        62     9        0.000000       -0.078579         3    ;  uncertainty k = 0.110925
        33        14        20        62     9      180.000000        0.041475         4    ;  uncertainty k = 0.028475
        34        21        16        69     9        0.000000        0.541481         1    ;  uncertainty k = 0.398177
        34        21        16        69     9      180.000000       -0.622570         2    ;  uncertainty k = 0.184277
        34        21        16        69     9        0.000000        0.191619         3    ;  uncertainty k = 0.116496
        34        21        16        69     9      180.000000        0.189193         4    ;  uncertainty k = 0.076095
        35        36        37        38     9        0.000000       -4.140071         1    ;  uncertainty k = 1.925675
        35        36        37        38     9      180.000000        2.074247         2    ;  uncertainty k = 0.552905
        35        36        37        38     9        0.000000       -0.109904         3    ;  uncertainty k = 0.505232
        35        36        37        38     9      180.000000        0.002033         4    ;  uncertainty k = 0.168271
        35        36        37        42     9        0.000000        0.751076         1    ;  uncertainty k = 0.572851
        35        36        37        42     9      180.000000        0.321327         2    ;  uncertainty k = 0.277446
        35        36        37        42     9        0.000000       -0.191165         3    ;  uncertainty k = 0.140749
        35        36        37        42     9      180.000000       -0.337116         4    ;  uncertainty k = 0.203995
        35        36        37        43     9        0.000000        0.751076         1    ;  uncertainty k = 0.572851
        35        36        37        43     9      180.000000        0.321327         2    ;  uncertainty k = 0.277446
        35        36        37        43     9        0.000000       -0.191165         3    ;  uncertainty k = 0.140749
        35        36        37        43     9      180.000000       -0.337116         4    ;  uncertainty k = 0.203995
        35        40        39        38     9        0.000000       -2.230974         1    ;  uncertainty k = 1.801449
        35        40        39        38     9      180.000000       -1.841150         2    ;  uncertainty k = 0.733686
        35        40        39        38     9        0.000000        2.407959         3    ;  uncertainty k = 0.680334
        35        40        39        38     9      180.000000       -0.535745         4    ;  uncertainty k = 0.301690
        35        40        39        44     9        0.000000        1.199598         1    ;  uncertainty k = 0.377899
        35        40        39        44     9      180.000000       -1.613470         2    ;  uncertainty k = 0.549592
        35        40        39        44     9        0.000000        0.472706         3    ;  uncertainty k = 0.260800
        35        40        39        44     9      180.000000        0.111560         4    ;  uncertainty k = 0.091588
        35        40        39        45     9        0.000000        1.199598         1    ;  uncertainty k = 0.377899
        35        40        39        45     9      180.000000       -1.613470         2    ;  uncertainty k = 0.549592
        35        40        39        45     9        0.000000        0.472706         3    ;  uncertainty k = 0.260800
        35        40        39        45     9      180.000000        0.111560         4    ;  uncertainty k = 0.091588
        36        35        40        39     9        0.000000       -4.440652         1    ;  uncertainty k = 1.431166
        36        35        40        39     9      180.000000        4.155396         2    ;  uncertainty k = 1.296225
        36        35        40        39     9        0.000000       -0.642889         3    ;  uncertainty k = 0.597439
        36        35        40        39     9      180.000000       -0.217610         4    ;  uncertainty k = 0.318749
        36        35        40        46     9        0.000000        0.013025         1    ;  uncertainty k = 0.359065
        36        35        40        46     9      180.000000        1.250042         2    ;  uncertainty k = 0.490358
        36        35        40        46     9        0.000000        0.121610         3    ;  uncertainty k = 0.182463
        36        35        40        46     9      180.000000       -0.043715         4    ;  uncertainty k = 0.054548
        36        35        40        47     9        0.000000        0.013025         1    ;  uncertainty k = 0.359065
        36        35        40        47     9      180.000000        1.250042         2    ;  uncertainty k = 0.490358
        36        35        40        47     9        0.000000        0.121610         3    ;  uncertainty k = 0.182463
        36        35        40        47     9      180.000000       -0.043715         4    ;  uncertainty k = 0.054548
        36        37        38        39     9        0.000000       -2.931117         1    ;  uncertainty k = 2.436693
        36        37        38        39     9      180.000000       -1.451129         2    ;  uncertainty k = 0.464093
        36        37        38        39     9        0.000000        1.404828         3    ;  uncertainty k = 0.130307
        36        37        38        39     9      180.000000       -0.528609         4    ;  uncertainty k = 0.249297
        36        37        38        41     9        0.000000       -2.021362         1    ;  uncertainty k = 1.008927
        36        37        38        41     9      180.000000       -1.118312         2    ;  uncertainty k = 0.472230
        36        37        38        41     9        0.000000        1.258207         3    ;  uncertainty k = 0.234248
        36        37        38        41     9      180.000000       -0.045254         4    ;  uncertainty k = 0.250793
        37        36        35        40     9        0.000000        0.282381         1    ;  uncertainty k = 0.657141
        37        36        35        40     9      180.000000       10.551064         2    ;  uncertainty k = 0.221306
        37        36        35        40     9        0.000000        1.077819         3    ;  uncertainty k = 0.516713
        37        36        35        40     9      180.000000        0.991474         4    ;  uncertainty k = 0.186199
        37        38        39        40     9        0.000000       -4.350974         1    ;  uncertainty k = 2.057076
        37        38        39        40     9      180.000000       -1.496991         2    ;  uncertainty k = 0.799614
        37        38        39        40     9        0.000000        0.281379         3    ;  uncertainty k = 0.338606
        37        38        39        40     9      180.000000       -0.187310         4    ;  uncertainty k = 0.252807
        37        38        39        44     9        0.000000       -6.987612         1    ;  uncertainty k = 0.982733
        37        38        39        44     9      180.000000       -0.297910         2    ;  uncertainty k = 0.446998
        37        38        39        44     9        0.000000        0.675891         3    ;  uncertainty k = 0.207193
        37        38        39        44     9      180.000000       -0.045061         4    ;  uncertainty k = 0.100310
        37        38        39        45     9        0.000000       -6.987612         1    ;  uncertainty k = 0.982733
        37        38        39        45     9      180.000000       -0.297910         2    ;  uncertainty k = 0.446998
        37        38        39        45     9        0.000000        0.675891         3    ;  uncertainty k = 0.207193
        37        38        39        45     9      180.000000       -0.045061         4    ;  uncertainty k = 0.100310
        37        38        41        48     9        0.000000       -4.178510         1    ;  uncertainty k = 0.410688
        37        38        41        48     9      180.000000       -2.187807         2    ;  uncertainty k = 0.398638
        37        38        41        48     9        0.000000        1.157619         3    ;  uncertainty k = 0.069416
        37        38        41        48     9      180.000000        0.075129         4    ;  uncertainty k = 0.097696
        37        38        41        49     9        0.000000       -4.178510         1    ;  uncertainty k = 0.410688
        37        38        41        49     9      180.000000       -2.187807         2    ;  uncertainty k = 0.398638
        37        38        41        49     9        0.000000        1.157619         3    ;  uncertainty k = 0.069416
        37        38        41        49     9      180.000000        0.075129         4    ;  uncertainty k = 0.097696
        37        38        41        50     9        0.000000       -4.178510         1    ;  uncertainty k = 0.410688
        37        38        41        50     9      180.000000       -2.187807         2    ;  uncertainty k = 0.398638
        37        38        41        50     9        0.000000        1.157619         3    ;  uncertainty k = 0.069416
        37        38        41        50     9      180.000000        0.075129         4    ;  uncertainty k = 0.097696
        38        39        40        46     9        0.000000       -0.446420         1    ;  uncertainty k = 0.389425
        38        39        40        46     9      180.000000       -0.446895         2    ;  uncertainty k = 0.443633
        38        39        40        46     9        0.000000        1.043482         3    ;  uncertainty k = 0.139130
        38        39        40        46     9      180.000000       -0.054508         4    ;  uncertainty k = 0.166266
        38        39        40        47     9        0.000000       -0.446420         1    ;  uncertainty k = 0.389425
        38        39        40        47     9      180.000000       -0.446895         2    ;  uncertainty k = 0.443633
        38        39        40        47     9        0.000000        1.043482         3    ;  uncertainty k = 0.139130
        38        39        40        47     9      180.000000       -0.054508         4    ;  uncertainty k = 0.166266
        39        38        37        42     9        0.000000       -4.951174         1    ;  uncertainty k = 1.276230
        39        38        37        42     9      180.000000       -0.772512         2    ;  uncertainty k = 0.594344
        39        38        37        42     9        0.000000        0.687582         3    ;  uncertainty k = 0.234878
        39        38        37        42     9      180.000000        0.165440         4    ;  uncertainty k = 0.126758
        39        38        37        43     9        0.000000       -4.951174         1    ;  uncertainty k = 1.276230
        39        38        37        43     9      180.000000       -0.772512         2    ;  uncertainty k = 0.594344
        39        38        37        43     9        0.000000        0.687582         3    ;  uncertainty k = 0.234878
        39        38        37        43     9      180.000000        0.165440         4    ;  uncertainty k = 0.126758
        39        38        41        48     9        0.000000       -4.259086         1    ;  uncertainty k = 0.974846
        39        38        41        48     9      180.000000       -2.027003         2    ;  uncertainty k = 0.417753
        39        38        41        48     9        0.000000        1.017651         3    ;  uncertainty k = 0.103023
        39        38        41        48     9      180.000000        0.065258         4    ;  uncertainty k = 0.091860
        39        38        41        49     9        0.000000       -4.259086         1    ;  uncertainty k = 0.974846
        39        38        41        49     9      180.000000       -2.027003         2    ;  uncertainty k = 0.417753
        39        38        41        49     9        0.000000        1.017651         3    ;  uncertainty k = 0.103023
        39        38        41        49     9      180.000000        0.065258         4    ;  uncertainty k = 0.091860
        39        38        41        50     9        0.000000       -4.259086         1    ;  uncertainty k = 0.974846
        39        38        41        50     9      180.000000       -2.027003         2    ;  uncertainty k = 0.417753
        39        38        41        50     9        0.000000        1.017651         3    ;  uncertainty k = 0.103023
        39        38        41        50     9      180.000000        0.065258         4    ;  uncertainty k = 0.091860
        40        39        38        41     9        0.000000       -2.366425         1    ;  uncertainty k = 0.799682
        40        39        38        41     9      180.000000       -0.858215         2    ;  uncertainty k = 0.575132
        40        39        38        41     9        0.000000        0.300582         3    ;  uncertainty k = 0.302529
        40        39        38        41     9      180.000000        0.326407         4    ;  uncertainty k = 0.081722
        41        38        37        42     9        0.000000       -2.503106         1    ;  uncertainty k = 0.610923
        41        38        37        42     9      180.000000       -1.207857         2    ;  uncertainty k = 0.461275
        41        38        37        42     9        0.000000        0.607046         3    ;  uncertainty k = 0.147323
        41        38        37        42     9      180.000000        0.178325         4    ;  uncertainty k = 0.088460
        41        38        37        43     9        0.000000       -2.503106         1    ;  uncertainty k = 0.610923
        41        38        37        43     9      180.000000       -1.207857         2    ;  uncertainty k = 0.461275
        41        38        37        43     9        0.000000        0.607046         3    ;  uncertainty k = 0.147323
        41        38        37        43     9      180.000000        0.178325         4    ;  uncertainty k = 0.088460
        41        38        39        44     9        0.000000       -3.143701         1    ;  uncertainty k = 0.576024
        41        38        39        44     9      180.000000       -1.381403         2    ;  uncertainty k = 0.223671
        41        38        39        44     9        0.000000        0.354530         3    ;  uncertainty k = 0.126408
        41        38        39        44     9      180.000000        0.148173         4    ;  uncertainty k = 0.137426
        41        38        39        45     9        0.000000       -3.143701         1    ;  uncertainty k = 0.576024
        41        38        39        45     9      180.000000       -1.381403         2    ;  uncertainty k = 0.223671
        41        38        39        45     9        0.000000        0.354530         3    ;  uncertainty k = 0.126408
        41        38        39        45     9      180.000000        0.148173         4    ;  uncertainty k = 0.137426
        44        39        40        46     9        0.000000       -0.690419         1    ;  uncertainty k = 0.249272
        44        39        40        46     9      180.000000        0.819889         2    ;  uncertainty k = 0.297922
        44        39        40        46     9        0.000000        0.232501         3    ;  uncertainty k = 0.086816
        44        39        40        46     9      180.000000       -0.277806         4    ;  uncertainty k = 0.067741
        44        39        40        47     9        0.000000       -0.690419         1    ;  uncertainty k = 0.249272
        44        39        40        47     9      180.000000        0.819889         2    ;  uncertainty k = 0.297922
        44        39        40        47     9        0.000000        0.232501         3    ;  uncertainty k = 0.086816
        44        39        40        47     9      180.000000       -0.277806         4    ;  uncertainty k = 0.067741
        45        39        40        46     9        0.000000       -0.690419         1    ;  uncertainty k = 0.249272
        45        39        40        46     9      180.000000        0.819889         2    ;  uncertainty k = 0.297922
        45        39        40        46     9        0.000000        0.232501         3    ;  uncertainty k = 0.086816
        45        39        40        46     9      180.000000       -0.277806         4    ;  uncertainty k = 0.067741
        45        39        40        47     9        0.000000       -0.690419         1    ;  uncertainty k = 0.249272
        45        39        40        47     9      180.000000        0.819889         2    ;  uncertainty k = 0.297922
        45        39        40        47     9        0.000000        0.232501         3    ;  uncertainty k = 0.086816
        45        39        40        47     9      180.000000       -0.277806         4    ;  uncertainty k = 0.067741
        51        18        17        56     9        0.000000        2.074967         1    ;  uncertainty k = 0.921198
        51        18        17        56     9      180.000000       -0.794571         2    ;  uncertainty k = 0.180952
        51        18        17        56     9        0.000000        0.466866         3    ;  uncertainty k = 0.273235
        51        18        17        56     9      180.000000        0.035537         4    ;  uncertainty k = 0.093276
        51        18        17        57     9        0.000000        2.074967         1    ;  uncertainty k = 0.921198
        51        18        17        57     9      180.000000       -0.794571         2    ;  uncertainty k = 0.180952
        51        18        17        57     9        0.000000        0.466866         3    ;  uncertainty k = 0.273235
        51        18        17        57     9      180.000000        0.035537         4    ;  uncertainty k = 0.093276
        51        18        19        59     9        0.000000        2.252951         1    ;  uncertainty k = 0.998081
        51        18        19        59     9      180.000000       -0.859965         2    ;  uncertainty k = 0.120364
        51        18        19        59     9        0.000000        0.534711         3    ;  uncertainty k = 0.219264
        51        18        19        59     9      180.000000        0.057172         4    ;  uncertainty k = 0.086080
        51        18        19        60     9        0.000000        2.252951         1    ;  uncertainty k = 0.998081
        51        18        19        60     9      180.000000       -0.859965         2    ;  uncertainty k = 0.120364
        51        18        19        60     9        0.000000        0.534711         3    ;  uncertainty k = 0.219264
        51        18        19        60     9      180.000000        0.057172         4    ;  uncertainty k = 0.086080
        51        53        54        63     9        0.000000        0.159650         1    ;  uncertainty k = 0.146342
        51        53        54        63     9      180.000000       -0.144813         2    ;  uncertainty k = 0.094204
        51        53        54        63     9        0.000000        0.215227         3    ;  uncertainty k = 0.050987
        51        53        54        63     9      180.000000        0.244118         4    ;  uncertainty k = 0.052779
        51        53        54        64     9        0.000000        0.159650         1    ;  uncertainty k = 0.146342
        51        53        54        64     9      180.000000       -0.144813         2    ;  uncertainty k = 0.094204
        51        53        54        64     9        0.000000        0.215227         3    ;  uncertainty k = 0.050987
        51        53        54        64     9      180.000000        0.244118         4    ;  uncertainty k = 0.052779
        51        53        54        65     9        0.000000        0.159650         1    ;  uncertainty k = 0.146342
        51        53        54        65     9      180.000000       -0.144813         2    ;  uncertainty k = 0.094204
        51        53        54        65     9        0.000000        0.215227         3    ;  uncertainty k = 0.050987
        51        53        54        65     9      180.000000        0.244118         4    ;  uncertainty k = 0.052779
        51        53        55        66     9        0.000000        0.159650         1    ;  uncertainty k = 0.146342
        51        53        55        66     9      180.000000       -0.144813         2    ;  uncertainty k = 0.094204
        51        53        55        66     9        0.000000        0.215227         3    ;  uncertainty k = 0.050987
        51        53        55        66     9      180.000000        0.244118         4    ;  uncertainty k = 0.052779
        51        53        55        67     9        0.000000        0.159650         1    ;  uncertainty k = 0.146342
        51        53        55        67     9      180.000000       -0.144813         2    ;  uncertainty k = 0.094204
        51        53        55        67     9        0.000000        0.215227         3    ;  uncertainty k = 0.050987
        51        53        55        67     9      180.000000        0.244118         4    ;  uncertainty k = 0.052779
        51        53        55        68     9        0.000000        0.159650         1    ;  uncertainty k = 0.146342
        51        53        55        68     9      180.000000       -0.144813         2    ;  uncertainty k = 0.094204
        51        53        55        68     9        0.000000        0.215227         3    ;  uncertainty k = 0.050987
        51        53        55        68     9      180.000000        0.244118         4    ;  uncertainty k = 0.052779
        52        51        18        58     9        0.000000       -0.646773         1    ;  uncertainty k = 0.397646
        52        51        18        58     9      180.000000        3.762065         2    ;  uncertainty k = 0.492695
        52        51        18        58     9        0.000000        1.483897         3    ;  uncertainty k = 0.235291
        52        51        18        58     9      180.000000       -0.025919         4    ;  uncertainty k = 0.096422
        52        51        53        54     9        0.000000        6.844605         1    ;  uncertainty k = 0.882211
        52        51        53        54     9      180.000000       19.790839         2    ;  uncertainty k = 0.105250
        52        51        53        54     9        0.000000       -0.220230         3    ;  uncertainty k = 0.161100
        52        51        53        54     9      180.000000       -1.123904         4    ;  uncertainty k = 0.136735
        52        51        53        55     9        0.000000        6.844605         1    ;  uncertainty k = 0.882211
        52        51        53        55     9      180.000000       19.790839         2    ;  uncertainty k = 0.105250
        52        51        53        55     9        0.000000       -0.220230         3    ;  uncertainty k = 0.161100
        52        51        53        55     9      180.000000       -1.123904         4    ;  uncertainty k = 0.136735
        53        51        18        58     9        0.000000       -0.975826         1    ;  uncertainty k = 0.419407
        53        51        18        58     9      180.000000        2.303974         2    ;  uncertainty k = 0.241164
        53        51        18        58     9        0.000000        0.361698         3    ;  uncertainty k = 0.116719
        53        51        18        58     9      180.000000        0.170218         4    ;  uncertainty k = 0.047482
        54        53        55        66     9        0.000000       -0.681994         1    ;  uncertainty k = 0.166187
        54        53        55        66     9      180.000000       -1.033629         2    ;  uncertainty k = 0.139918
        54        53        55        66     9        0.000000        1.312135         3    ;  uncertainty k = 0.057549
        54        53        55        66     9      180.000000        0.172025         4    ;  uncertainty k = 0.029064
        54        53        55        67     9        0.000000       -0.681994         1    ;  uncertainty k = 0.166187
        54        53        55        67     9      180.000000       -1.033629         2    ;  uncertainty k = 0.139918
        54        53        55        67     9        0.000000        1.312135         3    ;  uncertainty k = 0.057549
        54        53        55        67     9      180.000000        0.172025         4    ;  uncertainty k = 0.029064
        54        53        55        68     9        0.000000       -0.681994         1    ;  uncertainty k = 0.166187
        54        53        55        68     9      180.000000       -1.033629         2    ;  uncertainty k = 0.139918
        54        53        55        68     9        0.000000        1.312135         3    ;  uncertainty k = 0.057549
        54        53        55        68     9      180.000000        0.172025         4    ;  uncertainty k = 0.029064
        55        53        54        63     9        0.000000       -0.681994         1    ;  uncertainty k = 0.166187
        55        53        54        63     9      180.000000       -1.033629         2    ;  uncertainty k = 0.139918
        55        53        54        63     9        0.000000        1.312135         3    ;  uncertainty k = 0.057549
        55        53        54        63     9      180.000000        0.172025         4    ;  uncertainty k = 0.029064
        55        53        54        64     9        0.000000       -0.681994         1    ;  uncertainty k = 0.166187
        55        53        54        64     9      180.000000       -1.033629         2    ;  uncertainty k = 0.139918
        55        53        54        64     9        0.000000        1.312135         3    ;  uncertainty k = 0.057549
        55        53        54        64     9      180.000000        0.172025         4    ;  uncertainty k = 0.029064
        55        53        54        65     9        0.000000       -0.681994         1    ;  uncertainty k = 0.166187
        55        53        54        65     9      180.000000       -1.033629         2    ;  uncertainty k = 0.139918
        55        53        54        65     9        0.000000        1.312135         3    ;  uncertainty k = 0.057549
        55        53        54        65     9      180.000000        0.172025         4    ;  uncertainty k = 0.029064
        56        17        16        69     9        0.000000        1.227188         1    ;  uncertainty k = 0.333718
        56        17        16        69     9      180.000000       -0.559059         2    ;  uncertainty k = 0.228850
        56        17        16        69     9        0.000000       -0.052658         3    ;  uncertainty k = 0.148156
        56        17        16        69     9      180.000000        0.050866         4    ;  uncertainty k = 0.043410
        56        17        18        58     9        0.000000        1.275091         1    ;  uncertainty k = 0.308666
        56        17        18        58     9      180.000000       -0.191825         2    ;  uncertainty k = 0.161770
        56        17        18        58     9        0.000000       -0.005639         3    ;  uncertainty k = 0.106020
        56        17        18        58     9      180.000000        0.069270         4    ;  uncertainty k = 0.064132
        57        17        16        69     9        0.000000        1.227188         1    ;  uncertainty k = 0.333718
        57        17        16        69     9      180.000000       -0.559059         2    ;  uncertainty k = 0.228850
        57        17        16        69     9        0.000000       -0.052658         3    ;  uncertainty k = 0.148156
        57        17        16        69     9      180.000000        0.050866         4    ;  uncertainty k = 0.043410
        57        17        18        58     9        0.000000        1.275091         1    ;  uncertainty k = 0.308666
        57        17        18        58     9      180.000000       -0.191825         2    ;  uncertainty k = 0.161770
        57        17        18        58     9        0.000000       -0.005639         3    ;  uncertainty k = 0.106020
        57        17        18        58     9      180.000000        0.069270         4    ;  uncertainty k = 0.064132
        58        18        19        59     9        0.000000        1.375228         1    ;  uncertainty k = 0.292892
        58        18        19        59     9      180.000000       -0.112288         2    ;  uncertainty k = 0.227466
        58        18        19        59     9        0.000000       -0.024960         3    ;  uncertainty k = 0.142904
        58        18        19        59     9      180.000000        0.069958         4    ;  uncertainty k = 0.050452
        58        18        19        60     9        0.000000        1.375228         1    ;  uncertainty k = 0.292892
        58        18        19        60     9      180.000000       -0.112288         2    ;  uncertainty k = 0.227466
        58        18        19        60     9        0.000000       -0.024960         3    ;  uncertainty k = 0.142904
        58        18        19        60     9      180.000000        0.069958         4    ;  uncertainty k = 0.050452
        59        19        20        61     9        0.000000        2.326715         1    ;  uncertainty k = 0.674870
        59        19        20        61     9      180.000000       -0.090546         2    ;  uncertainty k = 0.158885
        59        19        20        61     9        0.000000        0.306144         3    ;  uncertainty k = 0.135782
        59        19        20        61     9      180.000000        0.130862         4    ;  uncertainty k = 0.038651
        59        19        20        62     9        0.000000        2.326715         1    ;  uncertainty k = 0.674870
        59        19        20        62     9      180.000000       -0.090546         2    ;  uncertainty k = 0.158885
        59        19        20        62     9        0.000000        0.306144         3    ;  uncertainty k = 0.135782
        59        19        20        62     9      180.000000        0.130862         4    ;  uncertainty k = 0.038651
        60        19        20        61     9        0.000000        2.326715         1    ;  uncertainty k = 0.674870
        60        19        20        61     9      180.000000       -0.090546         2    ;  uncertainty k = 0.158885
        60        19        20        61     9        0.000000        0.306144         3    ;  uncertainty k = 0.135782
        60        19        20        61     9      180.000000        0.130862         4    ;  uncertainty k = 0.038651
        60        19        20        62     9        0.000000        2.326715         1    ;  uncertainty k = 0.674870
        60        19        20        62     9      180.000000       -0.090546         2    ;  uncertainty k = 0.158885
        60        19        20        62     9        0.000000        0.306144         3    ;  uncertainty k = 0.135782
        60        19        20        62     9      180.000000        0.130862         4    ;  uncertainty k = 0.038651

[ dihedrals ] ; impropers
;       ai        aj        ak        al funct           phase               k        pn
         1         3         7        11     4      180.000000        7.328524         2    ;  uncertainty k = 0.307933
         1         7        11         3     4      180.000000        7.328524         2    ;  uncertainty k = 0.307933
         1        11         3         7     4      180.000000        7.328524         2    ;  uncertainty k = 0.307933
         3         1         4         8     4      180.000000       10.427880         2    ;  uncertainty k = 0.118693
         3         4         8         1     4      180.000000       10.427880         2    ;  uncertainty k = 0.118693
         3         8         1         4     4      180.000000       10.427880         2    ;  uncertainty k = 0.118693
         4         3         5        27     4      180.000000        4.112282         2    ;  uncertainty k = 0.268155
         4         5        27         3     4      180.000000        4.112282         2    ;  uncertainty k = 0.268155
         4        27         3         5     4      180.000000        4.112282         2    ;  uncertainty k = 0.268155
         5         4         6        12     4      180.000000       15.922094         2    ;  uncertainty k = 0.117763
         5         6        12         4     4      180.000000       15.922094         2    ;  uncertainty k = 0.117763
         5        12         4         6     4      180.000000       15.922094         2    ;  uncertainty k = 0.117763
         7         1         6        28     4      180.000000       14.797401         2    ;  uncertainty k = 0.143202
         7         6        28         1     4      180.000000       14.797401         2    ;  uncertainty k = 0.143202
         7        28         1         6     4      180.000000       14.797401         2    ;  uncertainty k = 0.143202
         8         3         9        29     4      180.000000        4.062893         2    ;  uncertainty k = 0.210499
         8         9        29         3     4      180.000000        4.062893         2    ;  uncertainty k = 0.210499
         8        29         3         9     4      180.000000        4.062893         2    ;  uncertainty k = 0.210499
         9         8        10        30     4      180.000000        4.287828         2    ;  uncertainty k = 0.107078
         9        10        30         8     4      180.000000        4.287828         2    ;  uncertainty k = 0.107078
         9        30         8        10     4      180.000000        4.287828         2    ;  uncertainty k = 0.107078
        10         2         9        11     4      180.000000       13.772585         2    ;  uncertainty k = 0.012728
        10         9        11         2     4      180.000000       13.772585         2    ;  uncertainty k = 0.012728
        10        11         2         9     4      180.000000       13.772585         2    ;  uncertainty k = 0.012728
        11         1        10        31     4      180.000000        4.397762         2    ;  uncertainty k = 0.306429
        11        10        31         1     4      180.000000        4.397762         2    ;  uncertainty k = 0.306429
        11        31         1        10     4      180.000000        4.397762         2    ;  uncertainty k = 0.306429
        12         5        13        15     4      180.000000       47.163689         2    ;  uncertainty k = 0.032759
        12        13        15         5     4      180.000000       47.163689         2    ;  uncertainty k = 0.032759
        12        15         5        13     4      180.000000       47.163689         2    ;  uncertainty k = 0.032759
        22        21        23        24     4      180.000000       49.476644         2    ;  uncertainty k = 0.014914
        22        23        24        21     4      180.000000       49.476644         2    ;  uncertainty k = 0.014914
        22        24        21        23     4      180.000000       49.476644         2    ;  uncertainty k = 0.014914
        23        22        25        26     4      180.000000        4.762177         2    ;  uncertainty k = 0.485670
        23        25        26        22     4      180.000000        4.762177         2    ;  uncertainty k = 0.485670
        23        26        22        25     4      180.000000        4.762177         2    ;  uncertainty k = 0.485670
        35        25        36        40     4      180.000000       10.302524         2    ;  uncertainty k = 0.235813
        35        36        40        25     4      180.000000       10.302524         2    ;  uncertainty k = 0.235813
        35        40        25        36     4      180.000000       10.302524         2    ;  uncertainty k = 0.235813
        36        26        35        37     4      180.000000        2.894551         2    ;  uncertainty k = 0.672593
        36        35        37        26     4      180.000000        2.894551         2    ;  uncertainty k = 0.672593
        36        37        26        35     4      180.000000        2.894551         2    ;  uncertainty k = 0.672593
        51        18        52        53     4      180.000000       51.316646         2    ;  uncertainty k = 0.028239
        51        52        53        18     4      180.000000       51.316646         2    ;  uncertainty k = 0.028239
        51        53        18        52     4      180.000000       51.316646         2    ;  uncertainty k = 0.028239

[ pairs ]
;       ai        aj funct
         1         2     1
         1         5     1
         1         9     1
         1        27     1
         1        29     1
         2         8     1
         2        30     1
         2        31     1
         3         6     1
         3        10     1
         3        12     1
         3        28     1
         3        30     1
         3        31     1
         4         7     1
         4         9     1
         4        11     1
         4        13     1
         4        15     1
         4        29     1
         5         8     1
         5        14     1
         5        28     1
         5        32     1
         6        11     1
         6        13     1
         6        15     1
         6        27     1
         7         8     1
         7        10     1
         7        12     1
         7        31     1
         8        11     1
         8        27     1
         9        31     1
        10        29     1
        11        28     1
        11        30     1
        12        16     1
        12        20     1
        12        27     1
        12        33     1
        13        17     1
        13        19     1
        13        21     1
        13        61     1
        13        62     1
        13        69     1
        14        15     1
        14        18     1
        14        22     1
        14        34     1
        14        56     1
        14        57     1
        14        59     1
        14        60     1
        15        32     1
        16        19     1
        16        23     1
        16        24     1
        16        32     1
        16        51     1
        16        58     1
        16        61     1
        16        62     1
        17        20     1
        17        22     1
        17        33     1
        17        34     1
        17        52     1
        17        53     1
        17        59     1
        17        60     1
        18        21     1
        18        54     1
        18        55     1
        18        61     1
        18        62     1
        18        69     1
        19        33     1
        19        52     1
        19        53     1
        19        56     1
        19        57     1
        20        21     1
        20        32     1
        20        51     1
        20        58     1
        20        69     1
        21        25     1
        21        26     1
        21        33     1
        21        56     1
        21        57     1
        22        35     1
        22        36     1
        22        69     1
        23        34     1
        23        37     1
        23        40     1
        24        25     1
        24        26     1
        24        34     1
        25        37     1
        25        39     1
        25        46     1
        25        47     1
        26        38     1
        26        40     1
        26        42     1
        26        43     1
        29        30     1
        32        33     1
        33        61     1
        33        62     1
        33        69     1
        34        69     1
        35        38     1
        35        42     1
        35        43     1
        35        44     1
        35        45     1
        36        39     1
        36        41     1
        36        46     1
        36        47     1
        37        40     1
        37        44     1
        37        45     1
        37        48     1
        37        49     1
        37        50     1
        38        46     1
        38        47     1
        39        42     1
        39        43     1
        39        48     1
        39        49     1
        39        50     1
        40        41     1
        41        42     1
        41        43     1
        41        44     1
        41        45     1
        44        46     1
        44        47     1
        45        46     1
        45        47     1
        51        56     1
        51        57     1
        51        59     1
        51        60     1
        51        63     1
        51        64     1
        51        65     1
        51        66     1
        51        67     1
        51        68     1
        52        54     1
        52        55     1
        52        58     1
        53        58     1
        54        66     1
        54        67     1
        54        68     1
        55        63     1
        55        64     1
        55        65     1
        56        58     1
        56        69     1
        57        58     1
        57        69     1
        58        59     1
        58        60     1
        59        61     1
        59        62     1
        60        61     1
        60        62     1
