; ITP file created by ByteFF-joint-25, 2025-07-14 11:37:40.354326

[ atomtypes ]
;name           bonded.type        at.num        mass        charge   ptype           sigma         epsilon
 c0bf                                   6      0.0000       0.00000       A     3.31518e-01     4.13160e-01    ;  uncertainty sigma = 0.000007, epsilon = 0.000578
 cl1bf                                 17      0.0000       0.00000       A     3.46597e-01     1.10389e+00    ;  uncertainty sigma = 0.000012, epsilon = 0.000891
 c2bf                                   6      0.0000       0.00000       A     3.31528e-01     4.13321e-01    ;  uncertainty sigma = 0.000004, epsilon = 0.000916
 c3bf                                   6      0.0000       0.00000       A     3.31519e-01     4.13007e-01    ;  uncertainty sigma = 0.000003, epsilon = 0.000669
 c4bf                                   6      0.0000       0.00000       A     3.31512e-01     4.12778e-01    ;  uncertainty sigma = 0.000014, epsilon = 0.001167
 c5bf                                   6      0.0000       0.00000       A     3.31558e-01     4.13199e-01    ;  uncertainty sigma = 0.000007, epsilon = 0.000778
 n6bf                                   7      0.0000       0.00000       A     3.38405e-01     3.93173e-01    ;  uncertainty sigma = 0.000011, epsilon = 0.000735
 c7bf                                   6      0.0000       0.00000       A     3.31519e-01     4.13314e-01    ;  uncertainty sigma = 0.000006, epsilon = 0.000711
 c8bf                                   6      0.0000       0.00000       A     3.31526e-01     4.13388e-01    ;  uncertainty sigma = 0.000005, epsilon = 0.000462
 c9bf                                   6      0.0000       0.00000       A     3.31531e-01     4.13103e-01    ;  uncertainty sigma = 0.000003, epsilon = 0.000855
 c10bf                                  6      0.0000       0.00000       A     3.31537e-01     4.13382e-01    ;  uncertainty sigma = 0.000007, epsilon = 0.000508
 c11bf                                  6      0.0000       0.00000       A     3.31489e-01     4.12171e-01    ;  uncertainty sigma = 0.000015, epsilon = 0.001023
 n12bf                                  7      0.0000       0.00000       A     3.27043e-01     4.89477e-01    ;  uncertainty sigma = 0.000018, epsilon = 0.001756
 c13bf                                  6      0.0000       0.00000       A     3.39788e-01     4.50817e-01    ;  uncertainty sigma = 0.000020, epsilon = 0.000916
 o14bf                                  8      0.0000       0.00000       A     3.04796e-01     6.12213e-01    ;  uncertainty sigma = 0.000013, epsilon = 0.000923
 c15bf                                  6      0.0000       0.00000       A     3.39779e-01     4.50691e-01    ;  uncertainty sigma = 0.000021, epsilon = 0.001068
 c16bf                                  6      0.0000       0.00000       A     3.39785e-01     4.51177e-01    ;  uncertainty sigma = 0.000013, epsilon = 0.000568
 c17bf                                  6      0.0000       0.00000       A     3.39788e-01     4.50813e-01    ;  uncertainty sigma = 0.000005, epsilon = 0.001015
 c18bf                                  6      0.0000       0.00000       A     3.39784e-01     4.51089e-01    ;  uncertainty sigma = 0.000005, epsilon = 0.000646
 c19bf                                  6      0.0000       0.00000       A     3.39763e-01     4.50994e-01    ;  uncertainty sigma = 0.000009, epsilon = 0.000666
 n20bf                                  7      0.0000       0.00000       A     3.27037e-01     4.89849e-01    ;  uncertainty sigma = 0.000029, epsilon = 0.003194
 c21bf                                  6      0.0000       0.00000       A     3.31529e-01     4.12690e-01    ;  uncertainty sigma = 0.000018, epsilon = 0.001128
 c22bf                                  6      0.0000       0.00000       A     3.31525e-01     4.13652e-01    ;  uncertainty sigma = 0.000013, epsilon = 0.001225
 o23bf                                  8      0.0000       0.00000       A     3.04890e-01     6.12219e-01    ;  uncertainty sigma = 0.000024, epsilon = 0.000874
 n24bf                                  7      0.0000       0.00000       A     3.38354e-01     3.93161e-01    ;  uncertainty sigma = 0.000020, epsilon = 0.001245
 s25bf                                 16      0.0000       0.00000       A     3.53288e-01     1.18179e+00    ;  uncertainty sigma = 0.000032, epsilon = 0.002346
 h26bf                                  1      0.0000       0.00000       A     2.62568e-01     6.70327e-02    ;  uncertainty sigma = 0.000007, epsilon = 0.000700
 h27bf                                  1      0.0000       0.00000       A     2.62561e-01     6.70263e-02    ;  uncertainty sigma = 0.000011, epsilon = 0.000439
 h28bf                                  1      0.0000       0.00000       A     2.62554e-01     6.70089e-02    ;  uncertainty sigma = 0.000010, epsilon = 0.000673
 h29bf                                  1      0.0000       0.00000       A     2.62572e-01     6.69284e-02    ;  uncertainty sigma = 0.000013, epsilon = 0.000711
 h30bf                                  1      0.0000       0.00000       A     1.10650e-01     4.15088e-02    ;  uncertainty sigma = 0.000077, epsilon = 0.000874
 h31bf                                  1      0.0000       0.00000       A     2.42165e-01     8.67649e-02    ;  uncertainty sigma = 0.000033, epsilon = 0.001355
 h32bf                                  1      0.0000       0.00000       A     1.10666e-01     4.15404e-02    ;  uncertainty sigma = 0.000113, epsilon = 0.000907
 c33bf                                  6      0.0000       0.00000       A     3.31531e-01     4.13284e-01    ;  uncertainty sigma = 0.000022, epsilon = 0.000692
 c34bf                                  6      0.0000       0.00000       A     3.31510e-01     4.13232e-01    ;  uncertainty sigma = 0.000021, epsilon = 0.000971
 c35bf                                  6      0.0000       0.00000       A     3.39772e-01     4.51291e-01    ;  uncertainty sigma = 0.000007, epsilon = 0.001369
 n36bf                                  7      0.0000       0.00000       A     3.36491e-01     3.58344e-01    ;  uncertainty sigma = 0.000019, epsilon = 0.001758
 c37bf                                  6      0.0000       0.00000       A     3.39770e-01     4.51225e-01    ;  uncertainty sigma = 0.000009, epsilon = 0.000671
 c38bf                                  6      0.0000       0.00000       A     3.39762e-01     4.51164e-01    ;  uncertainty sigma = 0.000008, epsilon = 0.001424
 c39bf                                  6      0.0000       0.00000       A     3.39770e-01     4.51318e-01    ;  uncertainty sigma = 0.000003, epsilon = 0.000740
 h40bf                                  1      0.0000       0.00000       A     2.42250e-01     8.62902e-02    ;  uncertainty sigma = 0.000037, epsilon = 0.000964
 h41bf                                  1      0.0000       0.00000       A     2.42250e-01     8.62902e-02    ;  uncertainty sigma = 0.000037, epsilon = 0.000964
 h42bf                                  1      0.0000       0.00000       A     2.42218e-01     8.69005e-02    ;  uncertainty sigma = 0.000021, epsilon = 0.000739
 h43bf                                  1      0.0000       0.00000       A     2.42218e-01     8.69005e-02    ;  uncertainty sigma = 0.000021, epsilon = 0.000739
 h44bf                                  1      0.0000       0.00000       A     2.60015e-01     8.68230e-02    ;  uncertainty sigma = 0.000020, epsilon = 0.000739
 h45bf                                  1      0.0000       0.00000       A     2.60015e-01     8.68230e-02    ;  uncertainty sigma = 0.000020, epsilon = 0.000739
 h46bf                                  1      0.0000       0.00000       A     2.42198e-01     8.68693e-02    ;  uncertainty sigma = 0.000014, epsilon = 0.000543
 h47bf                                  1      0.0000       0.00000       A     2.42198e-01     8.68693e-02    ;  uncertainty sigma = 0.000014, epsilon = 0.000543
 h48bf                                  1      0.0000       0.00000       A     2.42198e-01     8.68693e-02    ;  uncertainty sigma = 0.000014, epsilon = 0.000543
 c49bf                                  6      0.0000       0.00000       A     3.31545e-01     4.13066e-01    ;  uncertainty sigma = 0.000011, epsilon = 0.001034
 o50bf                                  8      0.0000       0.00000       A     3.04819e-01     6.12467e-01    ;  uncertainty sigma = 0.000013, epsilon = 0.000996
 n51bf                                  7      0.0000       0.00000       A     3.18136e-01     6.84509e-01    ;  uncertainty sigma = 0.000019, epsilon = 0.001339
 c52bf                                  6      0.0000       0.00000       A     3.39777e-01     4.50876e-01    ;  uncertainty sigma = 0.000006, epsilon = 0.000504
 c53bf                                  6      0.0000       0.00000       A     3.39777e-01     4.50876e-01    ;  uncertainty sigma = 0.000006, epsilon = 0.000504
 h54bf                                  1      0.0000       0.00000       A     2.60016e-01     8.65219e-02    ;  uncertainty sigma = 0.000021, epsilon = 0.000613
 h55bf                                  1      0.0000       0.00000       A     2.60016e-01     8.65219e-02    ;  uncertainty sigma = 0.000021, epsilon = 0.000613
 h56bf                                  1      0.0000       0.00000       A     2.60030e-01     8.70270e-02    ;  uncertainty sigma = 0.000011, epsilon = 0.000538
 h57bf                                  1      0.0000       0.00000       A     2.60020e-01     8.66352e-02    ;  uncertainty sigma = 0.000016, epsilon = 0.000625
 h58bf                                  1      0.0000       0.00000       A     2.60020e-01     8.66352e-02    ;  uncertainty sigma = 0.000016, epsilon = 0.000625
 h59bf                                  1      0.0000       0.00000       A     2.60024e-01     8.67210e-02    ;  uncertainty sigma = 0.000008, epsilon = 0.000629
 h60bf                                  1      0.0000       0.00000       A     2.60024e-01     8.67210e-02    ;  uncertainty sigma = 0.000008, epsilon = 0.000629
 h61bf                                  1      0.0000       0.00000       A     2.42196e-01     8.67627e-02    ;  uncertainty sigma = 0.000011, epsilon = 0.000510
 h62bf                                  1      0.0000       0.00000       A     2.42196e-01     8.67627e-02    ;  uncertainty sigma = 0.000011, epsilon = 0.000510
 h63bf                                  1      0.0000       0.00000       A     2.42196e-01     8.67627e-02    ;  uncertainty sigma = 0.000011, epsilon = 0.000510
 h64bf                                  1      0.0000       0.00000       A     2.42196e-01     8.67627e-02    ;  uncertainty sigma = 0.000011, epsilon = 0.000510
 h65bf                                  1      0.0000       0.00000       A     2.42196e-01     8.67627e-02    ;  uncertainty sigma = 0.000011, epsilon = 0.000510
 h66bf                                  1      0.0000       0.00000       A     2.42196e-01     8.67627e-02    ;  uncertainty sigma = 0.000011, epsilon = 0.000510
 h67bf                                  1      0.0000       0.00000       A     2.42143e-01     8.68216e-02    ;  uncertainty sigma = 0.000035, epsilon = 0.001353
 h68bf                                  1      0.0000       0.00000       A     2.53655e-01     6.71632e-02    ;  uncertainty sigma = 0.000017, epsilon = 0.000473

[ moleculetype ]
;name             nrexcl
 MOL                   3

[ atoms ]
;       nr            type      resi   res      atom      cgnr      charge          mass ; qtot
         1            c0bf         1   UNL        c0         1     0.41648       12.0110 ; qtot    0.416
         2           cl1bf         1   UNL       cl1         2    -0.11361       35.4530 ; qtot    0.303
         3            c2bf         1   UNL        c2         3    -0.15903       12.0110 ; qtot    0.144
         4            c3bf         1   UNL        c3         4    -0.02795       12.0110 ; qtot    0.116
         5            c4bf         1   UNL        c4         5    -0.27077       12.0110 ; qtot   -0.155
         6            c5bf         1   UNL        c5         6     0.45186       12.0110 ; qtot    0.297
         7            n6bf         1   UNL        n6         7    -0.65558       14.0070 ; qtot   -0.359
         8            c7bf         1   UNL        c7         8    -0.09104       12.0110 ; qtot   -0.450
         9            c8bf         1   UNL        c8         9    -0.12390       12.0110 ; qtot   -0.574
        10            c9bf         1   UNL        c9        10     0.04331       12.0110 ; qtot   -0.530
        11           c10bf         1   UNL       c10        11    -0.15824       12.0110 ; qtot   -0.688
        12           c11bf         1   UNL       c11        12     0.68371       12.0110 ; qtot   -0.005
        13           n12bf         1   UNL       n12        13    -0.56379       14.0070 ; qtot   -0.569
        14           c13bf         1   UNL       c13        14     0.09727       12.0110 ; qtot   -0.471
        15           o14bf         1   UNL       o14        15    -0.59703       15.9990 ; qtot   -1.068
        16           c15bf         1   UNL       c15        16     0.10482       12.0110 ; qtot   -0.963
        17           c16bf         1   UNL       c16        17    -0.07517       12.0110 ; qtot   -1.039
        18           c17bf         1   UNL       c17        18    -0.13250       12.0110 ; qtot   -1.171
        19           c18bf         1   UNL       c18        19    -0.06578       12.0110 ; qtot   -1.237
        20           c19bf         1   UNL       c19        20    -0.08746       12.0110 ; qtot   -1.324
        21           n20bf         1   UNL       n20        21    -0.55641       14.0070 ; qtot   -1.881
        22           c21bf         1   UNL       c21        22     0.59414       12.0110 ; qtot   -1.287
        23           c22bf         1   UNL       c22        23     0.37509       12.0110 ; qtot   -0.912
        24           o23bf         1   UNL       o23        24    -0.57698       15.9990 ; qtot   -1.489
        25           n24bf         1   UNL       n24        25    -0.60853       14.0070 ; qtot   -2.097
        26           s25bf         1   UNL       s25        26    -0.11954       32.0670 ; qtot   -2.217
        27           h26bf         1   UNL       h26        27     0.15213        1.0080 ; qtot   -2.065
        28           h27bf         1   UNL       h27        28     0.13957        1.0080 ; qtot   -1.925
        29           h28bf         1   UNL       h28        29     0.15493        1.0080 ; qtot   -1.770
        30           h29bf         1   UNL       h29        30     0.16787        1.0080 ; qtot   -1.602
        31           h30bf         1   UNL       h30        31     0.31863        1.0080 ; qtot   -1.284
        32           h31bf         1   UNL       h31        32     0.07711        1.0080 ; qtot   -1.206
        33           h32bf         1   UNL       h32        33     0.33735        1.0080 ; qtot   -0.869
        34           c33bf         1   UNL       c33        34     0.34886       12.0110 ; qtot   -0.520
        35           c34bf         1   UNL       c34        35    -0.15290       12.0110 ; qtot   -0.673
        36           c35bf         1   UNL       c35        36     0.24342       12.0110 ; qtot   -0.430
        37           n36bf         1   UNL       n36        37    -0.71265       14.0070 ; qtot   -1.142
        38           c37bf         1   UNL       c37        38     0.15896       12.0110 ; qtot   -0.983
        39           c38bf         1   UNL       c38        39    -0.11292       12.0110 ; qtot   -1.096
        40           c39bf         1   UNL       c39        40     0.14692       12.0110 ; qtot   -0.949
        41           h40bf         1   UNL       h40        41     0.05218        1.0080 ; qtot   -0.897
        42           h41bf         1   UNL       h41        42     0.05218        1.0080 ; qtot   -0.845
        43           h42bf         1   UNL       h42        43     0.04542        1.0080 ; qtot   -0.800
        44           h43bf         1   UNL       h43        44     0.04542        1.0080 ; qtot   -0.754
        45           h44bf         1   UNL       h44        45     0.06419        1.0080 ; qtot   -0.690
        46           h45bf         1   UNL       h45        46     0.06419        1.0080 ; qtot   -0.626
        47           h46bf         1   UNL       h46        47     0.03530        1.0080 ; qtot   -0.590
        48           h47bf         1   UNL       h47        48     0.03530        1.0080 ; qtot   -0.555
        49           h48bf         1   UNL       h48        49     0.03530        1.0080 ; qtot   -0.520
        50           c49bf         1   UNL       c49        50     0.67193       12.0110 ; qtot    0.152
        51           o50bf         1   UNL       o50        51    -0.60797       15.9990 ; qtot   -0.456
        52           n51bf         1   UNL       n51        52    -0.49029       14.0070 ; qtot   -0.946
        53           c52bf         1   UNL       c52        53     0.08466       12.0110 ; qtot   -0.862
        54           c53bf         1   UNL       c53        54     0.08466       12.0110 ; qtot   -0.777
        55           h54bf         1   UNL       h54        55     0.06150        1.0080 ; qtot   -0.715
        56           h55bf         1   UNL       h55        56     0.06150        1.0080 ; qtot   -0.654
        57           h56bf         1   UNL       h56        57     0.06422        1.0080 ; qtot   -0.590
        58           h57bf         1   UNL       h57        58     0.05208        1.0080 ; qtot   -0.538
        59           h58bf         1   UNL       h58        59     0.05208        1.0080 ; qtot   -0.486
        60           h59bf         1   UNL       h59        60     0.05522        1.0080 ; qtot   -0.430
        61           h60bf         1   UNL       h60        61     0.05522        1.0080 ; qtot   -0.375
        62           h61bf         1   UNL       h61        62     0.04383        1.0080 ; qtot   -0.331
        63           h62bf         1   UNL       h62        63     0.04383        1.0080 ; qtot   -0.287
        64           h63bf         1   UNL       h63        64     0.04383        1.0080 ; qtot   -0.244
        65           h64bf         1   UNL       h64        65     0.04383        1.0080 ; qtot   -0.200
        66           h65bf         1   UNL       h65        66     0.04383        1.0080 ; qtot   -0.156
        67           h66bf         1   UNL       h66        67     0.04383        1.0080 ; qtot   -0.112
        68           h67bf         1   UNL       h67        68     0.07881        1.0080 ; qtot   -0.033
        69           h68bf         1   UNL       h68        69     0.03327        1.0080 ; qtot   -0.000

[ bonds ]
;       ai        aj funct               r               k
         1         3     1        0.143007   329979.010107    ;  uncertainty r = 0.000037, k = 6.866523
         1         7     1        0.136661   389856.815332    ;  uncertainty r = 0.000030, k = 10.837702
         1        11     1        0.142061   373900.590967    ;  uncertainty r = 0.000020, k = 11.592637
         2        10     1        0.175618   196381.596875    ;  uncertainty r = 0.000053, k = 3.352843
         3         4     1        0.141449   359292.368457    ;  uncertainty r = 0.000051, k = 1.224611
         3         8     1        0.142073   348212.736035    ;  uncertainty r = 0.000029, k = 4.086538
         4         5     1        0.138073   372629.455811    ;  uncertainty r = 0.000050, k = 9.975917
         4        27     1        0.108737   332211.183301    ;  uncertainty r = 0.000036, k = 1.387678
         5         6     1        0.142730   339739.804053    ;  uncertainty r = 0.000080, k = 13.604287
         5        12     1        0.150215   273450.371240    ;  uncertainty r = 0.000064, k = 12.251669
         6         7     1        0.131623   385945.066455    ;  uncertainty r = 0.000096, k = 8.283630
         6        69     1        0.108963   333246.559863    ;  uncertainty r = 0.000029, k = 4.971571
         8         9     1        0.137863   373514.265576    ;  uncertainty r = 0.000034, k = 2.194873
         8        28     1        0.108772   333877.122168    ;  uncertainty r = 0.000012, k = 1.936744
         9        10     1        0.141688   344833.793408    ;  uncertainty r = 0.000064, k = 3.493698
         9        29     1        0.108674   335576.233740    ;  uncertainty r = 0.000015, k = 1.284620
        10        11     1        0.137696   361047.789355    ;  uncertainty r = 0.000028, k = 2.120544
        11        30     1        0.108658   338805.682129    ;  uncertainty r = 0.000010, k = 1.754331
        12        13     1        0.136952   275439.916357    ;  uncertainty r = 0.000104, k = 14.257831
        12        15     1        0.123756   784854.148633    ;  uncertainty r = 0.000089, k = 7.716737
        13        14     1        0.145989   246091.929688    ;  uncertainty r = 0.000077, k = 11.865486
        13        31     1        0.101395   413510.281982    ;  uncertainty r = 0.000078, k = 2.613942
        14        16     1        0.154149   193233.254346    ;  uncertainty r = 0.000225, k = 7.241530
        14        20     1        0.153518   200229.554053    ;  uncertainty r = 0.000087, k = 6.980344
        14        32     1        0.109367   306139.199170    ;  uncertainty r = 0.000050, k = 3.162886
        16        17     1        0.153461   198493.451978    ;  uncertainty r = 0.000128, k = 5.281574
        16        21     1        0.145732   238691.326465    ;  uncertainty r = 0.000068, k = 15.691022
        16        68     1        0.109360   306494.828955    ;  uncertainty r = 0.000054, k = 3.368977
        17        18     1        0.153721   199006.850024    ;  uncertainty r = 0.000168, k = 6.848027
        17        55     1        0.109526   310433.851465    ;  uncertainty r = 0.000043, k = 0.875064
        17        56     1        0.109526   310433.851465    ;  uncertainty r = 0.000043, k = 0.875064
        18        19     1        0.153975   202217.337109    ;  uncertainty r = 0.000087, k = 2.573046
        18        50     1        0.153156   206143.680444    ;  uncertainty r = 0.000070, k = 12.443492
        18        57     1        0.109633   309151.735352    ;  uncertainty r = 0.000051, k = 6.503762
        19        20     1        0.153317   207892.474463    ;  uncertainty r = 0.000061, k = 5.382321
        19        58     1        0.109602   308125.501074    ;  uncertainty r = 0.000021, k = 1.819146
        19        59     1        0.109602   308125.501074    ;  uncertainty r = 0.000021, k = 1.819146
        20        60     1        0.109620   309930.898096    ;  uncertainty r = 0.000025, k = 1.029525
        20        61     1        0.109620   309930.898096    ;  uncertainty r = 0.000025, k = 1.029525
        21        22     1        0.136254   291452.475586    ;  uncertainty r = 0.000129, k = 17.867731
        21        33     1        0.101616   410581.507520    ;  uncertainty r = 0.000093, k = 3.750123
        22        23     1        0.147883   259563.418848    ;  uncertainty r = 0.000125, k = 27.680344
        22        24     1        0.123538   703630.001367    ;  uncertainty r = 0.000115, k = 12.098945
        23        25     1        0.130310   434161.095312    ;  uncertainty r = 0.000085, k = 15.053236
        23        26     1        0.175563   155788.944214    ;  uncertainty r = 0.000188, k = 10.470577
        25        34     1        0.137602   299978.345996    ;  uncertainty r = 0.000211, k = 8.739575
        26        35     1        0.173396   184345.625244    ;  uncertainty r = 0.000110, k = 8.530767
        34        35     1        0.137286   397473.794482    ;  uncertainty r = 0.000034, k = 9.608965
        34        39     1        0.149948   244144.622949    ;  uncertainty r = 0.000108, k = 7.193396
        35        36     1        0.150719   237383.826465    ;  uncertainty r = 0.000089, k = 11.691948
        36        37     1        0.146397   258698.068359    ;  uncertainty r = 0.000045, k = 12.802743
        36        41     1        0.110180   303656.992139    ;  uncertainty r = 0.000048, k = 3.959665
        36        42     1        0.110180   303656.992139    ;  uncertainty r = 0.000048, k = 3.959665
        37        38     1        0.146774   246527.975830    ;  uncertainty r = 0.000088, k = 8.191406
        37        40     1        0.145874   240551.449512    ;  uncertainty r = 0.000055, k = 4.989744
        38        39     1        0.153862   211171.503149    ;  uncertainty r = 0.000061, k = 10.297044
        38        43     1        0.109933   305388.127246    ;  uncertainty r = 0.000023, k = 3.768152
        38        44     1        0.109933   305388.127246    ;  uncertainty r = 0.000023, k = 3.768152
        39        45     1        0.109729   310887.467139    ;  uncertainty r = 0.000009, k = 2.383701
        39        46     1        0.109729   310887.467139    ;  uncertainty r = 0.000009, k = 2.383701
        40        47     1        0.109858   306972.960254    ;  uncertainty r = 0.000009, k = 1.032628
        40        48     1        0.109858   306972.960254    ;  uncertainty r = 0.000009, k = 1.032628
        40        49     1        0.109858   306972.960254    ;  uncertainty r = 0.000009, k = 1.032628
        50        51     1        0.123614   736987.492969    ;  uncertainty r = 0.000035, k = 11.451192
        50        52     1        0.137582   365085.512793    ;  uncertainty r = 0.000056, k = 20.353976
        52        53     1        0.145904   250764.582275    ;  uncertainty r = 0.000013, k = 6.211512
        52        54     1        0.145904   250764.582275    ;  uncertainty r = 0.000013, k = 6.211512
        53        62     1        0.109437   311080.731982    ;  uncertainty r = 0.000014, k = 1.257584
        53        63     1        0.109437   311080.731982    ;  uncertainty r = 0.000014, k = 1.257584
        53        64     1        0.109437   311080.731982    ;  uncertainty r = 0.000014, k = 1.257584
        54        65     1        0.109437   311080.731982    ;  uncertainty r = 0.000014, k = 1.257584
        54        66     1        0.109437   311080.731982    ;  uncertainty r = 0.000014, k = 1.257584
        54        67     1        0.109437   311080.731982    ;  uncertainty r = 0.000014, k = 1.257590

[ angles ]
;       ai        aj        ak funct           theta             cth
         1         3         4     1      116.640945      447.879848    ;  uncertainty theta = 0.004565, k = 0.128443
         1         3         8     1      117.788246      447.345196    ;  uncertainty theta = 0.003131, k = 0.154988
         1         7         6     1      116.228294      469.307908    ;  uncertainty theta = 0.003044, k = 0.165529
         1        11        10     1      118.235474      499.514606    ;  uncertainty theta = 0.002596, k = 0.066978
         1        11        30     1      121.197510      265.016667    ;  uncertainty theta = 0.002555, k = 0.085746
         2        10         9     1      119.798851      451.060016    ;  uncertainty theta = 0.001168, k = 0.050653
         2        10        11     1      120.547653      442.916136    ;  uncertainty theta = 0.001298, k = 0.043853
         3         1         7     1      121.561485      570.349504    ;  uncertainty theta = 0.004235, k = 0.100226
         3         1        11     1      117.744797      408.637323    ;  uncertainty theta = 0.003017, k = 0.139580
         3         4         5     1      120.522377      554.473849    ;  uncertainty theta = 0.004391, k = 0.098629
         3         4        27     1      120.277939      279.135098    ;  uncertainty theta = 0.002147, k = 0.085640
         3         8         9     1      121.129066      539.855514    ;  uncertainty theta = 0.002870, k = 0.081575
         3         8        28     1      119.694229      278.774578    ;  uncertainty theta = 0.002274, k = 0.068279
         4         3         8     1      124.034180      460.126456    ;  uncertainty theta = 0.002816, k = 0.165976
         4         5         6     1      120.432175      415.765688    ;  uncertainty theta = 0.001715, k = 0.167747
         4         5        12     1      119.999107      333.990086    ;  uncertainty theta = 0.001434, k = 0.303080
         5         4        27     1      119.344009      263.642468    ;  uncertainty theta = 0.003991, k = 0.081727
         5         6         7     1      125.046402      728.444321    ;  uncertainty theta = 0.002597, k = 0.059791
         5         6        69     1      117.909828      256.328783    ;  uncertainty theta = 0.005651, k = 0.229591
         5        12        13     1      115.403748      447.155456    ;  uncertainty theta = 0.001287, k = 0.074942
         5        12        15     1      124.153870      538.066256    ;  uncertainty theta = 0.003669, k = 0.043042
         6         5        12     1      122.089432      367.166494    ;  uncertainty theta = 0.003700, k = 0.271318
         7         1        11     1      121.368942      503.807170    ;  uncertainty theta = 0.004975, k = 0.095065
         7         6        69     1      116.533646      349.844545    ;  uncertainty theta = 0.002229, k = 0.075325
         8         9        10     1      119.260391      516.851590    ;  uncertainty theta = 0.001119, k = 0.079747
         8         9        29     1      120.433617      285.540124    ;  uncertainty theta = 0.000078, k = 0.077947
         9         8        28     1      120.102402      282.572169    ;  uncertainty theta = 0.001945, k = 0.054161
         9        10        11     1      122.085007      391.894843    ;  uncertainty theta = 0.002521, k = 0.116002
        10         9        29     1      120.778030      287.366634    ;  uncertainty theta = 0.001261, k = 0.015725
        10        11        30     1      122.506104      283.708283    ;  uncertainty theta = 0.001842, k = 0.064714
        12        13        14     1      116.753906      441.075102    ;  uncertainty theta = 0.004077, k = 0.091534
        12        13        31     1      115.297745      336.171338    ;  uncertainty theta = 0.001726, k = 0.117340
        13        12        15     1      123.805099      782.434686    ;  uncertainty theta = 0.003050, k = 0.130977
        13        14        16     1      109.340637      582.795589    ;  uncertainty theta = 0.004264, k = 0.180171
        13        14        20     1      111.048111      635.615077    ;  uncertainty theta = 0.002520, k = 0.056718
        13        14        32     1      105.329674      443.711776    ;  uncertainty theta = 0.003627, k = 0.170511
        14        13        31     1      112.800880      330.168074    ;  uncertainty theta = 0.003067, k = 0.165525
        14        16        17     1      109.668968      543.194746    ;  uncertainty theta = 0.003153, k = 0.181087
        14        16        21     1      109.145096      584.287786    ;  uncertainty theta = 0.004574, k = 0.173128
        14        16        68     1      107.732323      383.900546    ;  uncertainty theta = 0.001730, k = 0.083551
        14        20        19     1      109.788712      550.523577    ;  uncertainty theta = 0.003607, k = 0.115721
        14        20        60     1      107.495544      382.890234    ;  uncertainty theta = 0.000860, k = 0.033541
        14        20        61     1      107.495544      382.890234    ;  uncertainty theta = 0.000860, k = 0.033541
        16        14        20     1      109.377792      552.255057    ;  uncertainty theta = 0.000803, k = 0.239272
        16        14        32     1      107.458580      382.125079    ;  uncertainty theta = 0.002662, k = 0.086925
        16        17        18     1      110.158470      537.237002    ;  uncertainty theta = 0.003364, k = 0.118913
        16        17        55     1      107.462036      385.087415    ;  uncertainty theta = 0.000668, k = 0.059043
        16        17        56     1      107.462036      385.087415    ;  uncertainty theta = 0.000668, k = 0.059043
        16        21        22     1      116.259842      438.599854    ;  uncertainty theta = 0.006695, k = 0.183209
        16        21        33     1      112.698265      315.764027    ;  uncertainty theta = 0.001508, k = 0.296876
        17        16        21     1      110.222816      630.153200    ;  uncertainty theta = 0.002135, k = 0.087453
        17        16        68     1      108.603882      408.571724    ;  uncertainty theta = 0.001775, k = 0.034676
        17        18        19     1      109.900391      583.567575    ;  uncertainty theta = 0.002330, k = 0.083135
        17        18        50     1      108.569168      489.144113    ;  uncertainty theta = 0.003757, k = 0.073146
        17        18        57     1      107.332260      401.082169    ;  uncertainty theta = 0.002516, k = 0.077903
        18        17        55     1      108.676857      396.198101    ;  uncertainty theta = 0.000795, k = 0.026396
        18        17        56     1      108.676857      396.198101    ;  uncertainty theta = 0.000795, k = 0.026396
        18        19        20     1      109.789757      580.826741    ;  uncertainty theta = 0.001891, k = 0.142184
        18        19        58     1      108.292625      386.614311    ;  uncertainty theta = 0.000735, k = 0.019139
        18        19        59     1      108.292625      386.614311    ;  uncertainty theta = 0.000735, k = 0.019139
        18        50        51     1      123.648819      547.647652    ;  uncertainty theta = 0.003749, k = 0.250532
        18        50        52     1      114.135170      399.306701    ;  uncertainty theta = 0.002339, k = 0.216014
        19        18        50     1      108.943726      496.415422    ;  uncertainty theta = 0.001979, k = 0.055108
        19        18        57     1      107.694107      403.879791    ;  uncertainty theta = 0.001685, k = 0.082263
        19        20        60     1      108.762428      400.566224    ;  uncertainty theta = 0.001510, k = 0.036687
        19        20        61     1      108.762428      400.566224    ;  uncertainty theta = 0.001510, k = 0.036687
        20        14        32     1      108.904579      411.004134    ;  uncertainty theta = 0.001658, k = 0.070802
        20        19        58     1      108.482193      402.788750    ;  uncertainty theta = 0.000884, k = 0.036541
        20        19        59     1      108.482193      402.788750    ;  uncertainty theta = 0.000884, k = 0.036541
        21        16        68     1      105.245773      446.491842    ;  uncertainty theta = 0.004278, k = 0.178016
        21        22        23     1      113.070839      435.784547    ;  uncertainty theta = 0.006920, k = 0.140238
        21        22        24     1      124.950012      804.911939    ;  uncertainty theta = 0.003994, k = 0.055585
        22        21        33     1      116.250000      347.593576    ;  uncertainty theta = 0.004441, k = 0.081627
        22        23        25     1      122.197128      370.860213    ;  uncertainty theta = 0.005964, k = 0.255742
        22        23        26     1      118.123451      287.405674    ;  uncertainty theta = 0.005808, k = 0.204925
        23        22        24     1      120.002197      453.227350    ;  uncertainty theta = 0.007890, k = 0.121396
        23        25        34     1      111.845421      637.059456    ;  uncertainty theta = 0.004719, k = 0.108197
        23        26        35     1       89.170425     1132.634133    ;  uncertainty theta = 0.004755, k = 0.314956
        25        23        26     1      116.136452      646.965173    ;  uncertainty theta = 0.002239, k = 0.246117
        25        34        35     1      115.716957      690.992937    ;  uncertainty theta = 0.003156, k = 0.158093
        25        34        39     1      124.040390      433.932787    ;  uncertainty theta = 0.004363, k = 0.201750
        26        35        34     1      109.672325      507.238336    ;  uncertainty theta = 0.002750, k = 0.124654
        26        35        36     1      124.458923      318.004972    ;  uncertainty theta = 0.003631, k = 0.249957
        34        35        36     1      122.449425      322.713122    ;  uncertainty theta = 0.004108, k = 0.373686
        34        39        38     1      106.939438      596.797522    ;  uncertainty theta = 0.003584, k = 0.044131
        34        39        45     1      108.548073      392.911220    ;  uncertainty theta = 0.001454, k = 0.086868
        34        39        46     1      108.548073      392.911220    ;  uncertainty theta = 0.001454, k = 0.086868
        35        34        39     1      120.498146      325.489963    ;  uncertainty theta = 0.004995, k = 0.174544
        35        36        37     1      109.701111      686.046080    ;  uncertainty theta = 0.001850, k = 0.201796
        35        36        41     1      108.925659      409.463193    ;  uncertainty theta = 0.001395, k = 0.154098
        35        36        42     1      108.925659      409.463193    ;  uncertainty theta = 0.001395, k = 0.154098
        36        37        38     1      108.084244      491.834927    ;  uncertainty theta = 0.003315, k = 0.091086
        36        37        40     1      107.580322      510.743273    ;  uncertainty theta = 0.002764, k = 0.057722
        37        36        41     1      109.358154      448.409487    ;  uncertainty theta = 0.001850, k = 0.074310
        37        36        42     1      109.358154      448.409487    ;  uncertainty theta = 0.001850, k = 0.074310
        37        38        39     1      112.487526      700.788206    ;  uncertainty theta = 0.002677, k = 0.118016
        37        38        43     1      108.920166      453.721493    ;  uncertainty theta = 0.001526, k = 0.064884
        37        38        44     1      108.920166      453.721493    ;  uncertainty theta = 0.001526, k = 0.064884
        37        40        47     1      110.438461      450.024231    ;  uncertainty theta = 0.001821, k = 0.029766
        37        40        48     1      110.438461      450.024231    ;  uncertainty theta = 0.001821, k = 0.029766
        37        40        49     1      110.438461      450.024231    ;  uncertainty theta = 0.001821, k = 0.029766
        38        37        40     1      108.245483      523.945384    ;  uncertainty theta = 0.002945, k = 0.105030
        38        39        45     1      108.704140      394.566535    ;  uncertainty theta = 0.001154, k = 0.056791
        38        39        46     1      108.704140      394.566535    ;  uncertainty theta = 0.001154, k = 0.056791
        39        38        43     1      108.660522      413.983038    ;  uncertainty theta = 0.001451, k = 0.079858
        39        38        44     1      108.660522      413.983038    ;  uncertainty theta = 0.001451, k = 0.079858
        41        36        42     1      104.710770      316.430897    ;  uncertainty theta = 0.002647, k = 0.058044
        43        38        44     1      105.686386      320.062785    ;  uncertainty theta = 0.001993, k = 0.069558
        45        39        46     1      105.018166      307.701164    ;  uncertainty theta = 0.001306, k = 0.028790
        47        40        48     1      106.707680      321.292396    ;  uncertainty theta = 0.002211, k = 0.028957
        47        40        49     1      106.707680      321.292396    ;  uncertainty theta = 0.002211, k = 0.028957
        48        40        49     1      106.707680      321.292396    ;  uncertainty theta = 0.002211, k = 0.028957
        50        18        57     1      106.313622      362.200292    ;  uncertainty theta = 0.002423, k = 0.146630
        50        52        53     1      116.622971      385.561065    ;  uncertainty theta = 0.001770, k = 0.124804
        50        52        54     1      116.622971      385.561065    ;  uncertainty theta = 0.001770, k = 0.124804
        51        50        52     1      123.396584      724.695474    ;  uncertainty theta = 0.001503, k = 0.174408
        52        53        62     1      109.352982      479.364486    ;  uncertainty theta = 0.001224, k = 0.042687
        52        53        63     1      109.352982      479.364486    ;  uncertainty theta = 0.001224, k = 0.042687
        52        53        64     1      109.352982      479.364486    ;  uncertainty theta = 0.001224, k = 0.042687
        52        54        65     1      109.352982      479.364486    ;  uncertainty theta = 0.001224, k = 0.042687
        52        54        66     1      109.352982      479.364486    ;  uncertainty theta = 0.001224, k = 0.042687
        52        54        67     1      109.352982      479.364486    ;  uncertainty theta = 0.001224, k = 0.042687
        53        52        54     1      118.428368      428.731644    ;  uncertainty theta = 0.003391, k = 0.223109
        55        17        56     1      105.326035      326.596294    ;  uncertainty theta = 0.002223, k = 0.051835
        58        19        59     1      104.655197      318.642921    ;  uncertainty theta = 0.002537, k = 0.034949
        60        20        61     1      105.087135      316.700154    ;  uncertainty theta = 0.002326, k = 0.045638
        62        53        63     1      106.824196      329.099123    ;  uncertainty theta = 0.001131, k = 0.027019
        62        53        64     1      106.824196      329.099123    ;  uncertainty theta = 0.001131, k = 0.027019
        63        53        64     1      106.824196      329.099123    ;  uncertainty theta = 0.001131, k = 0.027019
        65        54        66     1      106.824196      329.099123    ;  uncertainty theta = 0.001131, k = 0.027019
        65        54        67     1      106.824196      329.099123    ;  uncertainty theta = 0.001131, k = 0.027019
        66        54        67     1      106.824196      329.099123    ;  uncertainty theta = 0.001131, k = 0.027019

[ dihedrals ] ; propers for gromacs 4.5 or higher, use funct 9
;       ai        aj        ak        al funct           phase               k        pn
         1         3         4         5     9        0.000000       -0.108905         1    ;  uncertainty k = 0.307588
         1         3         4         5     9      180.000000       10.034911         2    ;  uncertainty k = 0.687381
         1         3         4         5     9        0.000000       -0.314344         3    ;  uncertainty k = 0.387374
         1         3         4         5     9      180.000000        1.263594         4    ;  uncertainty k = 0.266456
         1         3         4        27     9        0.000000       -0.173239         1    ;  uncertainty k = 0.790522
         1         3         4        27     9      180.000000        6.738064         2    ;  uncertainty k = 0.555660
         1         3         4        27     9        0.000000        1.115248         3    ;  uncertainty k = 0.223887
         1         3         4        27     9      180.000000        1.346056         4    ;  uncertainty k = 0.227358
         1         3         8         9     9        0.000000        0.101459         1    ;  uncertainty k = 0.241572
         1         3         8         9     9      180.000000       10.394685         2    ;  uncertainty k = 0.302600
         1         3         8         9     9        0.000000       -0.520869         3    ;  uncertainty k = 0.305981
         1         3         8         9     9      180.000000        1.126723         4    ;  uncertainty k = 0.220611
         1         3         8        28     9        0.000000       -0.238791         1    ;  uncertainty k = 0.707799
         1         3         8        28     9      180.000000        6.587239         2    ;  uncertainty k = 0.633127
         1         3         8        28     9        0.000000        1.124139         3    ;  uncertainty k = 0.182853
         1         3         8        28     9      180.000000        1.153113         4    ;  uncertainty k = 0.218657
         1         7         6         5     9        0.000000       -0.380970         1    ;  uncertainty k = 0.255751
         1         7         6         5     9      180.000000       16.704289         2    ;  uncertainty k = 0.130194
         1         7         6         5     9        0.000000        1.267569         3    ;  uncertainty k = 0.683657
         1         7         6         5     9      180.000000        1.630877         4    ;  uncertainty k = 0.415130
         1         7         6        69     9        0.000000        0.446221         1    ;  uncertainty k = 0.594466
         1         7         6        69     9      180.000000       17.301254         2    ;  uncertainty k = 0.363635
         1         7         6        69     9        0.000000        2.601002         3    ;  uncertainty k = 0.340035
         1         7         6        69     9      180.000000        1.624954         4    ;  uncertainty k = 0.428250
         1        11        10         2     9        0.000000       -0.232383         1    ;  uncertainty k = 0.130062
         1        11        10         2     9      180.000000       11.854501         2    ;  uncertainty k = 0.569209
         1        11        10         2     9        0.000000        1.526760         3    ;  uncertainty k = 0.274028
         1        11        10         2     9      180.000000        1.573983         4    ;  uncertainty k = 0.204685
         1        11        10         9     9        0.000000       -0.280620         1    ;  uncertainty k = 0.391410
         1        11        10         9     9      180.000000       11.968200         2    ;  uncertainty k = 0.304666
         1        11        10         9     9        0.000000        0.202166         3    ;  uncertainty k = 0.387472
         1        11        10         9     9      180.000000        1.195865         4    ;  uncertainty k = 0.304762
         2        10         9         8     9        0.000000        0.184977         1    ;  uncertainty k = 0.071438
         2        10         9         8     9      180.000000        8.017143         2    ;  uncertainty k = 0.680488
         2        10         9         8     9        0.000000        1.421922         3    ;  uncertainty k = 0.487991
         2        10         9         8     9      180.000000        1.531711         4    ;  uncertainty k = 0.225771
         2        10         9        29     9        0.000000        0.026073         1    ;  uncertainty k = 0.253802
         2        10         9        29     9      180.000000        6.783908         2    ;  uncertainty k = 0.217342
         2        10         9        29     9        0.000000        0.661177         3    ;  uncertainty k = 0.326525
         2        10         9        29     9      180.000000        0.897577         4    ;  uncertainty k = 0.173283
         2        10        11        30     9        0.000000       -0.290252         1    ;  uncertainty k = 0.452560
         2        10        11        30     9      180.000000        8.596643         2    ;  uncertainty k = 0.371158
         2        10        11        30     9        0.000000        0.817756         3    ;  uncertainty k = 0.275735
         2        10        11        30     9      180.000000        1.086458         4    ;  uncertainty k = 0.230692
         3         1         7         6     9        0.000000        0.427204         1    ;  uncertainty k = 0.898723
         3         1         7         6     9      180.000000       12.762146         2    ;  uncertainty k = 0.290632
         3         1         7         6     9        0.000000        1.385254         3    ;  uncertainty k = 0.332366
         3         1         7         6     9      180.000000        1.247721         4    ;  uncertainty k = 0.139734
         3         1        11        10     9        0.000000        0.214260         1    ;  uncertainty k = 0.188603
         3         1        11        10     9      180.000000        8.709193         2    ;  uncertainty k = 0.699392
         3         1        11        10     9        0.000000       -0.195780         3    ;  uncertainty k = 0.276151
         3         1        11        10     9      180.000000        1.203871         4    ;  uncertainty k = 0.193061
         3         1        11        30     9        0.000000       -0.165571         1    ;  uncertainty k = 0.451795
         3         1        11        30     9      180.000000        5.352066         2    ;  uncertainty k = 0.331946
         3         1        11        30     9        0.000000        1.269465         3    ;  uncertainty k = 0.236703
         3         1        11        30     9      180.000000        1.150975         4    ;  uncertainty k = 0.161374
         3         4         5         6     9        0.000000       -0.015088         1    ;  uncertainty k = 0.290600
         3         4         5         6     9      180.000000       11.929790         2    ;  uncertainty k = 0.396585
         3         4         5         6     9        0.000000       -0.439149         3    ;  uncertainty k = 0.314940
         3         4         5         6     9      180.000000        1.097377         4    ;  uncertainty k = 0.333577
         3         4         5        12     9        0.000000        0.411893         1    ;  uncertainty k = 0.361587
         3         4         5        12     9      180.000000       10.927572         2    ;  uncertainty k = 0.450176
         3         4         5        12     9        0.000000        1.586477         3    ;  uncertainty k = 0.188089
         3         4         5        12     9      180.000000        1.879012         4    ;  uncertainty k = 0.235373
         3         8         9        10     9        0.000000       -0.013197         1    ;  uncertainty k = 0.384445
         3         8         9        10     9      180.000000       16.327323         2    ;  uncertainty k = 0.215015
         3         8         9        10     9        0.000000       -0.439451         3    ;  uncertainty k = 0.616048
         3         8         9        10     9      180.000000        0.874385         4    ;  uncertainty k = 0.331682
         3         8         9        29     9        0.000000        0.138887         1    ;  uncertainty k = 0.162020
         3         8         9        29     9      180.000000       10.557014         2    ;  uncertainty k = 0.301286
         3         8         9        29     9        0.000000        1.656105         3    ;  uncertainty k = 0.314431
         3         8         9        29     9      180.000000        1.861283         4    ;  uncertainty k = 0.270770
         4         3         1         7     9        0.000000       -0.035909         1    ;  uncertainty k = 0.064980
         4         3         1         7     9      180.000000        7.589537         2    ;  uncertainty k = 0.584459
         4         3         1         7     9        0.000000        0.209111         3    ;  uncertainty k = 0.060739
         4         3         1         7     9      180.000000        1.398154         4    ;  uncertainty k = 0.274239
         4         3         1        11     9        0.000000       -0.126076         1    ;  uncertainty k = 0.254580
         4         3         1        11     9      180.000000        6.300060         2    ;  uncertainty k = 0.536930
         4         3         1        11     9        0.000000        0.175627         3    ;  uncertainty k = 0.156510
         4         3         1        11     9      180.000000        1.366391         4    ;  uncertainty k = 0.324074
         4         3         8         9     9        0.000000       -0.182671         1    ;  uncertainty k = 0.558074
         4         3         8         9     9      180.000000        9.067656         2    ;  uncertainty k = 0.411603
         4         3         8         9     9        0.000000        0.262897         3    ;  uncertainty k = 0.427626
         4         3         8         9     9      180.000000        1.372677         4    ;  uncertainty k = 0.141111
         4         3         8        28     9        0.000000       -0.306685         1    ;  uncertainty k = 0.160705
         4         3         8        28     9      180.000000        6.226845         2    ;  uncertainty k = 0.581677
         4         3         8        28     9        0.000000        1.140554         3    ;  uncertainty k = 0.211686
         4         3         8        28     9      180.000000        1.115970         4    ;  uncertainty k = 0.145143
         4         5         6         7     9        0.000000       -0.153014         1    ;  uncertainty k = 0.379999
         4         5         6         7     9      180.000000        9.404557         2    ;  uncertainty k = 0.263167
         4         5         6         7     9        0.000000       -0.359701         3    ;  uncertainty k = 0.360413
         4         5         6         7     9      180.000000        1.283627         4    ;  uncertainty k = 0.163751
         4         5         6        69     9        0.000000       -0.169964         1    ;  uncertainty k = 0.419412
         4         5         6        69     9      180.000000        4.747699         2    ;  uncertainty k = 0.989699
         4         5         6        69     9        0.000000        0.883401         3    ;  uncertainty k = 0.142968
         4         5         6        69     9      180.000000        1.389324         4    ;  uncertainty k = 0.297463
         4         5        12        13     9        0.000000        0.766533         1    ;  uncertainty k = 0.335245
         4         5        12        13     9      180.000000        3.029803         2    ;  uncertainty k = 0.338031
         4         5        12        13     9        0.000000        0.417752         3    ;  uncertainty k = 0.197930
         4         5        12        13     9      180.000000       -0.198371         4    ;  uncertainty k = 0.090790
         4         5        12        15     9        0.000000       -0.903937         1    ;  uncertainty k = 0.268600
         4         5        12        15     9      180.000000        3.584991         2    ;  uncertainty k = 0.378360
         4         5        12        15     9        0.000000        0.384200         3    ;  uncertainty k = 0.211054
         4         5        12        15     9      180.000000        0.005127         4    ;  uncertainty k = 0.077056
         5         4         3         8     9        0.000000        0.024633         1    ;  uncertainty k = 0.413092
         5         4         3         8     9      180.000000        8.645164         2    ;  uncertainty k = 0.388914
         5         4         3         8     9        0.000000        0.536074         3    ;  uncertainty k = 0.260417
         5         4         3         8     9      180.000000        1.475133         4    ;  uncertainty k = 0.139312
         5        12        13        14     9        0.000000        3.947889         1    ;  uncertainty k = 1.041232
         5        12        13        14     9      180.000000       12.948425         2    ;  uncertainty k = 0.238078
         5        12        13        14     9        0.000000        1.731280         3    ;  uncertainty k = 0.155759
         5        12        13        14     9      180.000000       -1.388443         4    ;  uncertainty k = 0.363120
         5        12        13        31     9        0.000000       -1.456733         1    ;  uncertainty k = 0.779750
         5        12        13        31     9      180.000000        7.726319         2    ;  uncertainty k = 0.785264
         5        12        13        31     9        0.000000        2.739660         3    ;  uncertainty k = 0.332736
         5        12        13        31     9      180.000000        0.199457         4    ;  uncertainty k = 0.471246
         6         5         4        27     9        0.000000        0.256727         1    ;  uncertainty k = 0.256921
         6         5         4        27     9      180.000000        8.193796         2    ;  uncertainty k = 0.567716
         6         5         4        27     9        0.000000        1.231895         3    ;  uncertainty k = 0.269334
         6         5         4        27     9      180.000000        1.703754         4    ;  uncertainty k = 0.225367
         6         5        12        13     9        0.000000       -1.787139         1    ;  uncertainty k = 0.550403
         6         5        12        13     9      180.000000        2.798114         2    ;  uncertainty k = 0.274074
         6         5        12        13     9        0.000000        0.003899         3    ;  uncertainty k = 0.254706
         6         5        12        13     9      180.000000       -0.307331         4    ;  uncertainty k = 0.120876
         6         5        12        15     9        0.000000       -1.379508         1    ;  uncertainty k = 0.526698
         6         5        12        15     9      180.000000        3.487210         2    ;  uncertainty k = 0.239370
         6         5        12        15     9        0.000000        0.275112         3    ;  uncertainty k = 0.158518
         6         5        12        15     9      180.000000       -0.024184         4    ;  uncertainty k = 0.104000
         6         7         1        11     9        0.000000        0.261057         1    ;  uncertainty k = 1.135139
         6         7         1        11     9      180.000000       12.630034         2    ;  uncertainty k = 0.252978
         6         7         1        11     9        0.000000        2.195633         3    ;  uncertainty k = 0.270116
         6         7         1        11     9      180.000000        1.299698         4    ;  uncertainty k = 0.145402
         7         1         3         8     9        0.000000        0.034262         1    ;  uncertainty k = 0.063540
         7         1         3         8     9      180.000000        7.627437         2    ;  uncertainty k = 0.785117
         7         1         3         8     9        0.000000        0.221234         3    ;  uncertainty k = 0.097474
         7         1         3         8     9      180.000000        1.399209         4    ;  uncertainty k = 0.265124
         7         1        11        10     9        0.000000        0.182451         1    ;  uncertainty k = 0.399448
         7         1        11        10     9      180.000000        9.721952         2    ;  uncertainty k = 0.287060
         7         1        11        10     9        0.000000        0.663792         3    ;  uncertainty k = 0.347014
         7         1        11        10     9      180.000000        1.486050         4    ;  uncertainty k = 0.167916
         7         1        11        30     9        0.000000        0.043182         1    ;  uncertainty k = 0.109226
         7         1        11        30     9      180.000000        7.614679         2    ;  uncertainty k = 0.348686
         7         1        11        30     9        0.000000        1.013789         3    ;  uncertainty k = 0.350610
         7         1        11        30     9      180.000000        1.179166         4    ;  uncertainty k = 0.161254
         7         6         5        12     9        0.000000        0.465821         1    ;  uncertainty k = 0.364719
         7         6         5        12     9      180.000000        8.463415         2    ;  uncertainty k = 0.336861
         7         6         5        12     9        0.000000        1.226063         3    ;  uncertainty k = 0.102957
         7         6         5        12     9      180.000000        1.729401         4    ;  uncertainty k = 0.278643
         8         3         1        11     9        0.000000       -0.014408         1    ;  uncertainty k = 0.306060
         8         3         1        11     9      180.000000        6.190537         2    ;  uncertainty k = 0.671058
         8         3         1        11     9        0.000000        0.143418         3    ;  uncertainty k = 0.241914
         8         3         1        11     9      180.000000        1.431814         4    ;  uncertainty k = 0.298057
         8         3         4        27     9        0.000000       -0.102392         1    ;  uncertainty k = 0.197405
         8         3         4        27     9      180.000000        6.397974         2    ;  uncertainty k = 0.329054
         8         3         4        27     9        0.000000        1.200988         3    ;  uncertainty k = 0.216741
         8         3         4        27     9      180.000000        1.286303         4    ;  uncertainty k = 0.170650
         8         9        10        11     9        0.000000        0.007990         1    ;  uncertainty k = 0.243299
         8         9        10        11     9      180.000000        7.786958         2    ;  uncertainty k = 0.538077
         8         9        10        11     9        0.000000        0.045962         3    ;  uncertainty k = 0.451780
         8         9        10        11     9      180.000000        1.161721         4    ;  uncertainty k = 0.236463
         9        10        11        30     9        0.000000        0.167928         1    ;  uncertainty k = 0.256099
         9        10        11        30     9      180.000000        7.474947         2    ;  uncertainty k = 0.478991
         9        10        11        30     9        0.000000        1.606608         3    ;  uncertainty k = 0.373742
         9        10        11        30     9      180.000000        1.733609         4    ;  uncertainty k = 0.105768
        10         9         8        28     9        0.000000        0.021166         1    ;  uncertainty k = 0.124465
        10         9         8        28     9      180.000000        9.428545         2    ;  uncertainty k = 0.453315
        10         9         8        28     9        0.000000        1.514890         3    ;  uncertainty k = 0.302778
        10         9         8        28     9      180.000000        2.000989         4    ;  uncertainty k = 0.379656
        11        10         9        29     9        0.000000       -0.159933         1    ;  uncertainty k = 0.166282
        11        10         9        29     9      180.000000        5.367232         2    ;  uncertainty k = 0.665249
        11        10         9        29     9        0.000000        1.214584         3    ;  uncertainty k = 0.248816
        11        10         9        29     9      180.000000        1.349945         4    ;  uncertainty k = 0.120662
        12         5         4        27     9        0.000000       -0.023144         1    ;  uncertainty k = 0.338796
        12         5         4        27     9      180.000000        8.824231         2    ;  uncertainty k = 0.460015
        12         5         4        27     9        0.000000        1.124137         3    ;  uncertainty k = 0.367124
        12         5         4        27     9      180.000000        1.288939         4    ;  uncertainty k = 0.133449
        12         5         6        69     9        0.000000       -0.249299         1    ;  uncertainty k = 0.655100
        12         5         6        69     9      180.000000        6.993057         2    ;  uncertainty k = 0.403143
        12         5         6        69     9        0.000000        0.831232         3    ;  uncertainty k = 0.192469
        12         5         6        69     9      180.000000        0.900826         4    ;  uncertainty k = 0.261835
        12        13        14        16     9        0.000000        0.551334         1    ;  uncertainty k = 0.370960
        12        13        14        16     9      180.000000        0.125563         2    ;  uncertainty k = 0.197126
        12        13        14        16     9        0.000000       -0.126490         3    ;  uncertainty k = 0.087787
        12        13        14        16     9      180.000000        0.432952         4    ;  uncertainty k = 0.228969
        12        13        14        20     9        0.000000        0.268898         1    ;  uncertainty k = 0.154769
        12        13        14        20     9      180.000000       -0.151543         2    ;  uncertainty k = 0.333591
        12        13        14        20     9        0.000000        0.168794         3    ;  uncertainty k = 0.110453
        12        13        14        20     9      180.000000        0.345075         4    ;  uncertainty k = 0.205888
        12        13        14        32     9        0.000000        1.030339         1    ;  uncertainty k = 0.230465
        12        13        14        32     9      180.000000       -0.400340         2    ;  uncertainty k = 0.219015
        12        13        14        32     9        0.000000        0.143549         3    ;  uncertainty k = 0.170978
        12        13        14        32     9      180.000000        0.198239         4    ;  uncertainty k = 0.043831
        13        14        16        17     9        0.000000       -2.528084         1    ;  uncertainty k = 0.314534
        13        14        16        17     9      180.000000       -0.233438         2    ;  uncertainty k = 0.378717
        13        14        16        17     9        0.000000        0.530821         3    ;  uncertainty k = 0.202852
        13        14        16        17     9      180.000000       -0.066973         4    ;  uncertainty k = 0.125504
        13        14        16        21     9        0.000000        0.291649         1    ;  uncertainty k = 0.985397
        13        14        16        21     9      180.000000       -1.118348         2    ;  uncertainty k = 0.775713
        13        14        16        21     9        0.000000        0.381722         3    ;  uncertainty k = 0.428449
        13        14        16        21     9      180.000000       -0.050785         4    ;  uncertainty k = 0.347912
        13        14        16        68     9        0.000000       -0.006081         1    ;  uncertainty k = 0.934039
        13        14        16        68     9      180.000000       -1.412034         2    ;  uncertainty k = 0.490766
        13        14        16        68     9        0.000000        0.501911         3    ;  uncertainty k = 0.239082
        13        14        16        68     9      180.000000       -0.273157         4    ;  uncertainty k = 0.115761
        13        14        20        19     9        0.000000       -4.175623         1    ;  uncertainty k = 0.761065
        13        14        20        19     9      180.000000        0.197451         2    ;  uncertainty k = 0.172693
        13        14        20        19     9        0.000000        0.867329         3    ;  uncertainty k = 0.058616
        13        14        20        19     9      180.000000       -0.161304         4    ;  uncertainty k = 0.121941
        13        14        20        60     9        0.000000       -0.355727         1    ;  uncertainty k = 0.537061
        13        14        20        60     9      180.000000       -1.359055         2    ;  uncertainty k = 0.444993
        13        14        20        60     9        0.000000        0.909567         3    ;  uncertainty k = 0.135931
        13        14        20        60     9      180.000000       -0.287536         4    ;  uncertainty k = 0.081193
        13        14        20        61     9        0.000000       -0.355727         1    ;  uncertainty k = 0.537061
        13        14        20        61     9      180.000000       -1.359055         2    ;  uncertainty k = 0.444993
        13        14        20        61     9        0.000000        0.909567         3    ;  uncertainty k = 0.135931
        13        14        20        61     9      180.000000       -0.287536         4    ;  uncertainty k = 0.081193
        14        13        12        15     9        0.000000        3.993877         1    ;  uncertainty k = 0.721065
        14        13        12        15     9      180.000000       11.827995         2    ;  uncertainty k = 0.246666
        14        13        12        15     9        0.000000        0.539513         3    ;  uncertainty k = 0.330185
        14        13        12        15     9      180.000000        0.004819         4    ;  uncertainty k = 0.335538
        14        16        17        18     9        0.000000       -1.456094         1    ;  uncertainty k = 2.698397
        14        16        17        18     9      180.000000       -1.367148         2    ;  uncertainty k = 1.274527
        14        16        17        18     9        0.000000        0.521650         3    ;  uncertainty k = 0.498024
        14        16        17        18     9      180.000000       -1.215981         4    ;  uncertainty k = 0.213875
        14        16        17        55     9        0.000000       -0.883054         1    ;  uncertainty k = 0.510035
        14        16        17        55     9      180.000000       -0.612178         2    ;  uncertainty k = 0.165892
        14        16        17        55     9        0.000000        0.126100         3    ;  uncertainty k = 0.066204
        14        16        17        55     9      180.000000       -0.135527         4    ;  uncertainty k = 0.114275
        14        16        17        56     9        0.000000       -0.883054         1    ;  uncertainty k = 0.510035
        14        16        17        56     9      180.000000       -0.612178         2    ;  uncertainty k = 0.165892
        14        16        17        56     9        0.000000        0.126100         3    ;  uncertainty k = 0.066204
        14        16        17        56     9      180.000000       -0.135527         4    ;  uncertainty k = 0.114275
        14        16        21        22     9        0.000000        0.806166         1    ;  uncertainty k = 0.584506
        14        16        21        22     9      180.000000        0.211265         2    ;  uncertainty k = 0.186901
        14        16        21        22     9        0.000000       -0.087720         3    ;  uncertainty k = 0.110584
        14        16        21        22     9      180.000000        0.457297         4    ;  uncertainty k = 0.212195
        14        16        21        33     9        0.000000        2.721714         1    ;  uncertainty k = 0.581123
        14        16        21        33     9      180.000000       -1.552768         2    ;  uncertainty k = 0.406749
        14        16        21        33     9        0.000000        0.519713         3    ;  uncertainty k = 0.252784
        14        16        21        33     9      180.000000        0.166664         4    ;  uncertainty k = 0.147162
        14        20        19        18     9        0.000000       -5.593175         1    ;  uncertainty k = 0.714850
        14        20        19        18     9      180.000000       -1.072192         2    ;  uncertainty k = 0.658130
        14        20        19        18     9        0.000000        1.426355         3    ;  uncertainty k = 0.144725
        14        20        19        18     9      180.000000       -1.201491         4    ;  uncertainty k = 0.219565
        14        20        19        58     9        0.000000       -1.157001         1    ;  uncertainty k = 0.423408
        14        20        19        58     9      180.000000       -0.678307         2    ;  uncertainty k = 0.273240
        14        20        19        58     9        0.000000        0.402900         3    ;  uncertainty k = 0.184259
        14        20        19        58     9      180.000000       -0.085830         4    ;  uncertainty k = 0.031937
        14        20        19        59     9        0.000000       -1.157001         1    ;  uncertainty k = 0.423408
        14        20        19        59     9      180.000000       -0.678307         2    ;  uncertainty k = 0.273240
        14        20        19        59     9        0.000000        0.402900         3    ;  uncertainty k = 0.184259
        14        20        19        59     9      180.000000       -0.085830         4    ;  uncertainty k = 0.031937
        15        12        13        31     9        0.000000        3.347698         1    ;  uncertainty k = 0.928524
        15        12        13        31     9      180.000000       15.142298         2    ;  uncertainty k = 0.048246
        15        12        13        31     9        0.000000        1.437291         3    ;  uncertainty k = 0.226430
        15        12        13        31     9      180.000000       -0.519413         4    ;  uncertainty k = 0.210430
        16        14        13        31     9        0.000000        2.392273         1    ;  uncertainty k = 0.645141
        16        14        13        31     9      180.000000       -1.662679         2    ;  uncertainty k = 0.683057
        16        14        13        31     9        0.000000        0.535478         3    ;  uncertainty k = 0.242596
        16        14        13        31     9      180.000000        0.145950         4    ;  uncertainty k = 0.113818
        16        14        20        19     9        0.000000       -4.799166         1    ;  uncertainty k = 1.380522
        16        14        20        19     9      180.000000        0.190384         2    ;  uncertainty k = 0.746255
        16        14        20        19     9        0.000000        0.931598         3    ;  uncertainty k = 0.334613
        16        14        20        19     9      180.000000       -1.207051         4    ;  uncertainty k = 0.155975
        16        14        20        60     9        0.000000       -0.720050         1    ;  uncertainty k = 0.645871
        16        14        20        60     9      180.000000       -0.677819         2    ;  uncertainty k = 0.272256
        16        14        20        60     9        0.000000        0.102385         3    ;  uncertainty k = 0.042680
        16        14        20        60     9      180.000000       -0.121601         4    ;  uncertainty k = 0.091983
        16        14        20        61     9        0.000000       -0.720050         1    ;  uncertainty k = 0.645871
        16        14        20        61     9      180.000000       -0.677819         2    ;  uncertainty k = 0.272256
        16        14        20        61     9        0.000000        0.102385         3    ;  uncertainty k = 0.042680
        16        14        20        61     9      180.000000       -0.121601         4    ;  uncertainty k = 0.091983
        16        17        18        19     9        0.000000       -3.684684         1    ;  uncertainty k = 1.555404
        16        17        18        19     9      180.000000       -0.286572         2    ;  uncertainty k = 0.574153
        16        17        18        19     9        0.000000        0.981635         3    ;  uncertainty k = 0.134172
        16        17        18        19     9      180.000000       -1.149549         4    ;  uncertainty k = 0.220596
        16        17        18        50     9        0.000000       -1.988663         1    ;  uncertainty k = 0.821936
        16        17        18        50     9      180.000000       -0.960549         2    ;  uncertainty k = 0.272982
        16        17        18        50     9        0.000000        0.443546         3    ;  uncertainty k = 0.317502
        16        17        18        50     9      180.000000        0.183458         4    ;  uncertainty k = 0.094088
        16        17        18        57     9        0.000000       -1.929217         1    ;  uncertainty k = 0.461104
        16        17        18        57     9      180.000000       -0.447748         2    ;  uncertainty k = 0.220193
        16        17        18        57     9        0.000000        0.087566         3    ;  uncertainty k = 0.087859
        16        17        18        57     9      180.000000       -0.164482         4    ;  uncertainty k = 0.141866
        16        21        22        23     9        0.000000        3.958068         1    ;  uncertainty k = 1.380043
        16        21        22        23     9      180.000000       12.511831         2    ;  uncertainty k = 0.156026
        16        21        22        23     9        0.000000        1.263553         3    ;  uncertainty k = 0.259475
        16        21        22        23     9      180.000000       -1.435052         4    ;  uncertainty k = 0.493362
        16        21        22        24     9        0.000000        4.206341         1    ;  uncertainty k = 1.055487
        16        21        22        24     9      180.000000       13.261930         2    ;  uncertainty k = 0.104052
        16        21        22        24     9        0.000000        0.422296         3    ;  uncertainty k = 0.282045
        16        21        22        24     9      180.000000       -0.345763         4    ;  uncertainty k = 0.133307
        17        16        14        20     9        0.000000       -1.504684         1    ;  uncertainty k = 2.486553
        17        16        14        20     9      180.000000        0.518860         2    ;  uncertainty k = 0.966084
        17        16        14        20     9        0.000000        0.428097         3    ;  uncertainty k = 0.506905
        17        16        14        20     9      180.000000       -1.121235         4    ;  uncertainty k = 0.264904
        17        16        14        32     9        0.000000       -1.278716         1    ;  uncertainty k = 0.309689
        17        16        14        32     9      180.000000       -0.212447         2    ;  uncertainty k = 0.244461
        17        16        14        32     9        0.000000       -0.235545         3    ;  uncertainty k = 0.061727
        17        16        14        32     9      180.000000       -0.145454         4    ;  uncertainty k = 0.046357
        17        16        21        22     9        0.000000        0.364606         1    ;  uncertainty k = 0.383608
        17        16        21        22     9      180.000000        0.211641         2    ;  uncertainty k = 0.299414
        17        16        21        22     9        0.000000        0.181029         3    ;  uncertainty k = 0.072944
        17        16        21        22     9      180.000000        0.342393         4    ;  uncertainty k = 0.127149
        17        16        21        33     9        0.000000        0.945683         1    ;  uncertainty k = 0.464115
        17        16        21        33     9      180.000000       -0.514672         2    ;  uncertainty k = 0.347973
        17        16        21        33     9        0.000000        0.327272         3    ;  uncertainty k = 0.178732
        17        16        21        33     9      180.000000        0.059847         4    ;  uncertainty k = 0.085826
        17        18        19        20     9        0.000000       -5.487573         1    ;  uncertainty k = 0.618648
        17        18        19        20     9      180.000000        0.628450         2    ;  uncertainty k = 0.548060
        17        18        19        20     9        0.000000        1.367560         3    ;  uncertainty k = 0.173350
        17        18        19        20     9      180.000000       -1.033143         4    ;  uncertainty k = 0.273102
        17        18        19        58     9        0.000000       -1.226844         1    ;  uncertainty k = 0.266748
        17        18        19        58     9      180.000000       -0.345485         2    ;  uncertainty k = 0.101300
        17        18        19        58     9        0.000000        0.394880         3    ;  uncertainty k = 0.108227
        17        18        19        58     9      180.000000       -0.070781         4    ;  uncertainty k = 0.048007
        17        18        19        59     9        0.000000       -1.226844         1    ;  uncertainty k = 0.266748
        17        18        19        59     9      180.000000       -0.345485         2    ;  uncertainty k = 0.101300
        17        18        19        59     9        0.000000        0.394880         3    ;  uncertainty k = 0.108227
        17        18        19        59     9      180.000000       -0.070781         4    ;  uncertainty k = 0.048007
        17        18        50        51     9        0.000000       -1.170185         1    ;  uncertainty k = 0.334655
        17        18        50        51     9      180.000000        4.880266         2    ;  uncertainty k = 0.323686
        17        18        50        51     9        0.000000        1.279706         3    ;  uncertainty k = 0.118363
        17        18        50        51     9      180.000000        0.575624         4    ;  uncertainty k = 0.083005
        17        18        50        52     9        0.000000       -1.631697         1    ;  uncertainty k = 0.279350
        17        18        50        52     9      180.000000        3.392199         2    ;  uncertainty k = 0.510159
        17        18        50        52     9        0.000000        0.814553         3    ;  uncertainty k = 0.127255
        17        18        50        52     9      180.000000        0.128487         4    ;  uncertainty k = 0.053904
        18        17        16        21     9        0.000000       -2.824384         1    ;  uncertainty k = 0.488217
        18        17        16        21     9      180.000000       -0.460507         2    ;  uncertainty k = 0.536155
        18        17        16        21     9        0.000000        0.759551         3    ;  uncertainty k = 0.189386
        18        17        16        21     9      180.000000       -0.140203         4    ;  uncertainty k = 0.174781
        18        17        16        68     9        0.000000       -0.730287         1    ;  uncertainty k = 0.498293
        18        17        16        68     9      180.000000       -0.792172         2    ;  uncertainty k = 0.456680
        18        17        16        68     9        0.000000       -0.041965         3    ;  uncertainty k = 0.196130
        18        17        16        68     9      180.000000       -0.091310         4    ;  uncertainty k = 0.082273
        18        19        20        60     9        0.000000       -1.242829         1    ;  uncertainty k = 0.333977
        18        19        20        60     9      180.000000       -0.548741         2    ;  uncertainty k = 0.201763
        18        19        20        60     9        0.000000        0.486940         3    ;  uncertainty k = 0.161944
        18        19        20        60     9      180.000000       -0.063210         4    ;  uncertainty k = 0.051028
        18        19        20        61     9        0.000000       -1.242829         1    ;  uncertainty k = 0.333977
        18        19        20        61     9      180.000000       -0.548741         2    ;  uncertainty k = 0.201763
        18        19        20        61     9        0.000000        0.486940         3    ;  uncertainty k = 0.161944
        18        19        20        61     9      180.000000       -0.063210         4    ;  uncertainty k = 0.051028
        18        50        52        53     9        0.000000        9.050821         1    ;  uncertainty k = 0.304912
        18        50        52        53     9      180.000000        6.374692         2    ;  uncertainty k = 0.405917
        18        50        52        53     9        0.000000        1.178678         3    ;  uncertainty k = 0.297789
        18        50        52        53     9      180.000000        0.054538         4    ;  uncertainty k = 0.124306
        18        50        52        54     9        0.000000        9.050821         1    ;  uncertainty k = 0.304912
        18        50        52        54     9      180.000000        6.374692         2    ;  uncertainty k = 0.405917
        18        50        52        54     9        0.000000        1.178678         3    ;  uncertainty k = 0.297789
        18        50        52        54     9      180.000000        0.054538         4    ;  uncertainty k = 0.124306
        19        18        17        55     9        0.000000       -1.411123         1    ;  uncertainty k = 0.345622
        19        18        17        55     9      180.000000       -0.225290         2    ;  uncertainty k = 0.172594
        19        18        17        55     9        0.000000        0.346843         3    ;  uncertainty k = 0.114252
        19        18        17        55     9      180.000000       -0.038457         4    ;  uncertainty k = 0.044896
        19        18        17        56     9        0.000000       -1.411123         1    ;  uncertainty k = 0.345622
        19        18        17        56     9      180.000000       -0.225290         2    ;  uncertainty k = 0.172594
        19        18        17        56     9        0.000000        0.346843         3    ;  uncertainty k = 0.114252
        19        18        17        56     9      180.000000       -0.038457         4    ;  uncertainty k = 0.044896
        19        18        50        51     9        0.000000       -1.412751         1    ;  uncertainty k = 0.366362
        19        18        50        51     9      180.000000        4.939282         2    ;  uncertainty k = 0.250194
        19        18        50        51     9        0.000000        1.341107         3    ;  uncertainty k = 0.099404
        19        18        50        51     9      180.000000        0.562838         4    ;  uncertainty k = 0.064019
        19        18        50        52     9        0.000000       -1.501807         1    ;  uncertainty k = 0.463410
        19        18        50        52     9      180.000000        3.323275         2    ;  uncertainty k = 0.502078
        19        18        50        52     9        0.000000        0.807080         3    ;  uncertainty k = 0.124119
        19        18        50        52     9      180.000000        0.125518         4    ;  uncertainty k = 0.039696
        19        20        14        32     9        0.000000       -1.467351         1    ;  uncertainty k = 0.297862
        19        20        14        32     9      180.000000       -0.260937         2    ;  uncertainty k = 0.244178
        19        20        14        32     9        0.000000        0.030506         3    ;  uncertainty k = 0.107026
        19        20        14        32     9      180.000000       -0.152086         4    ;  uncertainty k = 0.105150
        20        14        13        31     9        0.000000        0.518710         1    ;  uncertainty k = 0.673453
        20        14        13        31     9      180.000000       -0.555641         2    ;  uncertainty k = 0.345918
        20        14        13        31     9        0.000000        0.297999         3    ;  uncertainty k = 0.126103
        20        14        13        31     9      180.000000        0.043650         4    ;  uncertainty k = 0.050103
        20        14        16        21     9        0.000000       -2.820073         1    ;  uncertainty k = 0.490711
        20        14        16        21     9      180.000000       -0.095912         2    ;  uncertainty k = 0.364544
        20        14        16        21     9        0.000000        0.587215         3    ;  uncertainty k = 0.175247
        20        14        16        21     9      180.000000       -0.068556         4    ;  uncertainty k = 0.196383
        20        14        16        68     9        0.000000       -1.249975         1    ;  uncertainty k = 0.255477
        20        14        16        68     9      180.000000       -0.309296         2    ;  uncertainty k = 0.362140
        20        14        16        68     9        0.000000       -0.218771         3    ;  uncertainty k = 0.084394
        20        14        16        68     9      180.000000       -0.165295         4    ;  uncertainty k = 0.069703
        20        19        18        50     9        0.000000       -3.042856         1    ;  uncertainty k = 1.255460
        20        19        18        50     9      180.000000       -0.384066         2    ;  uncertainty k = 0.506050
        20        19        18        50     9        0.000000        0.568068         3    ;  uncertainty k = 0.143563
        20        19        18        50     9      180.000000        0.123689         4    ;  uncertainty k = 0.149073
        20        19        18        57     9        0.000000       -2.461228         1    ;  uncertainty k = 0.396150
        20        19        18        57     9      180.000000        0.138744         2    ;  uncertainty k = 0.107060
        20        19        18        57     9        0.000000        0.248333         3    ;  uncertainty k = 0.111967
        20        19        18        57     9      180.000000       -0.235150         4    ;  uncertainty k = 0.140386
        21        16        14        32     9        0.000000        0.054737         1    ;  uncertainty k = 1.101159
        21        16        14        32     9      180.000000       -1.465237         2    ;  uncertainty k = 0.517976
        21        16        14        32     9        0.000000        0.499357         3    ;  uncertainty k = 0.269250
        21        16        14        32     9      180.000000       -0.255299         4    ;  uncertainty k = 0.119667
        21        16        17        55     9        0.000000       -0.427435         1    ;  uncertainty k = 0.715503
        21        16        17        55     9      180.000000       -1.219759         2    ;  uncertainty k = 0.324042
        21        16        17        55     9        0.000000        0.959594         3    ;  uncertainty k = 0.057792
        21        16        17        55     9      180.000000       -0.287421         4    ;  uncertainty k = 0.054437
        21        16        17        56     9        0.000000       -0.427435         1    ;  uncertainty k = 0.715503
        21        16        17        56     9      180.000000       -1.219759         2    ;  uncertainty k = 0.324042
        21        16        17        56     9        0.000000        0.959594         3    ;  uncertainty k = 0.057792
        21        16        17        56     9      180.000000       -0.287421         4    ;  uncertainty k = 0.054437
        21        22        23        25     9        0.000000        2.331066         1    ;  uncertainty k = 1.152102
        21        22        23        25     9      180.000000        2.596169         2    ;  uncertainty k = 0.278815
        21        22        23        25     9        0.000000        0.009927         3    ;  uncertainty k = 0.144977
        21        22        23        25     9      180.000000       -0.114334         4    ;  uncertainty k = 0.149289
        21        22        23        26     9        0.000000        3.367960         1    ;  uncertainty k = 1.051353
        21        22        23        26     9      180.000000        3.218021         2    ;  uncertainty k = 0.680396
        21        22        23        26     9        0.000000        1.143577         3    ;  uncertainty k = 0.311002
        21        22        23        26     9      180.000000       -0.348976         4    ;  uncertainty k = 0.193639
        22        21        16        68     9        0.000000        1.089648         1    ;  uncertainty k = 0.334910
        22        21        16        68     9      180.000000       -0.432136         2    ;  uncertainty k = 0.173910
        22        21        16        68     9        0.000000        0.083475         3    ;  uncertainty k = 0.110493
        22        21        16        68     9      180.000000        0.217577         4    ;  uncertainty k = 0.051810
        22        23        25        34     9        0.000000        0.338836         1    ;  uncertainty k = 0.784673
        22        23        25        34     9      180.000000       19.192857         2    ;  uncertainty k = 0.359716
        22        23        25        34     9        0.000000        1.903447         3    ;  uncertainty k = 0.386883
        22        23        25        34     9      180.000000        1.368535         4    ;  uncertainty k = 0.528772
        22        23        26        35     9        0.000000        0.370727         1    ;  uncertainty k = 1.804242
        22        23        26        35     9      180.000000        8.920830         2    ;  uncertainty k = 1.081273
        22        23        26        35     9        0.000000        0.589745         3    ;  uncertainty k = 1.110553
        22        23        26        35     9      180.000000        0.676613         4    ;  uncertainty k = 0.547063
        23        22        21        33     9        0.000000       -0.086051         1    ;  uncertainty k = 0.569285
        23        22        21        33     9      180.000000        6.824223         2    ;  uncertainty k = 1.004102
        23        22        21        33     9        0.000000        2.774672         3    ;  uncertainty k = 0.278048
        23        22        21        33     9      180.000000        0.087878         4    ;  uncertainty k = 0.345011
        23        25        34        35     9        0.000000       -0.476241         1    ;  uncertainty k = 0.425307
        23        25        34        35     9      180.000000       15.671500         2    ;  uncertainty k = 0.795841
        23        25        34        35     9        0.000000       -2.864533         3    ;  uncertainty k = 0.780902
        23        25        34        35     9      180.000000        1.605024         4    ;  uncertainty k = 0.448125
        23        25        34        39     9        0.000000        0.569206         1    ;  uncertainty k = 1.621980
        23        25        34        39     9      180.000000       12.800205         2    ;  uncertainty k = 0.282748
        23        25        34        39     9        0.000000        1.817073         3    ;  uncertainty k = 0.361654
        23        25        34        39     9      180.000000        0.682642         4    ;  uncertainty k = 0.136948
        23        26        35        34     9        0.000000       -0.523789         1    ;  uncertainty k = 1.004169
        23        26        35        34     9      180.000000       13.442345         2    ;  uncertainty k = 0.923619
        23        26        35        34     9        0.000000       -9.024257         3    ;  uncertainty k = 1.660071
        23        26        35        34     9      180.000000        1.636793         4    ;  uncertainty k = 0.487983
        23        26        35        36     9        0.000000        1.116166         1    ;  uncertainty k = 1.266411
        23        26        35        36     9      180.000000       10.158909         2    ;  uncertainty k = 0.818049
        23        26        35        36     9        0.000000        0.724355         3    ;  uncertainty k = 0.566010
        23        26        35        36     9      180.000000       -0.026620         4    ;  uncertainty k = 0.200593
        24        22        21        33     9        0.000000        2.038363         1    ;  uncertainty k = 0.746143
        24        22        21        33     9      180.000000       14.699346         2    ;  uncertainty k = 0.325315
        24        22        21        33     9        0.000000        1.840592         3    ;  uncertainty k = 0.226058
        24        22        21        33     9      180.000000       -0.518143         4    ;  uncertainty k = 0.264067
        24        22        23        25     9        0.000000       -0.975565         1    ;  uncertainty k = 1.614283
        24        22        23        25     9      180.000000        3.488550         2    ;  uncertainty k = 0.286154
        24        22        23        25     9        0.000000        0.632000         3    ;  uncertainty k = 0.220397
        24        22        23        25     9      180.000000        0.223278         4    ;  uncertainty k = 0.063243
        24        22        23        26     9        0.000000       -0.928770         1    ;  uncertainty k = 0.780300
        24        22        23        26     9      180.000000        4.634695         2    ;  uncertainty k = 0.475093
        24        22        23        26     9        0.000000        0.007574         3    ;  uncertainty k = 0.071977
        24        22        23        26     9      180.000000        0.288910         4    ;  uncertainty k = 0.240907
        25        23        26        35     9        0.000000        0.143511         1    ;  uncertainty k = 1.333641
        25        23        26        35     9      180.000000       14.564367         2    ;  uncertainty k = 1.374348
        25        23        26        35     9        0.000000       -9.893199         3    ;  uncertainty k = 1.620531
        25        23        26        35     9      180.000000        1.663619         4    ;  uncertainty k = 0.759588
        25        34        35        26     9        0.000000        0.087022         1    ;  uncertainty k = 0.519435
        25        34        35        26     9      180.000000       17.308740         2    ;  uncertainty k = 0.865665
        25        34        35        26     9        0.000000       -2.374264         3    ;  uncertainty k = 0.748324
        25        34        35        26     9      180.000000        1.160228         4    ;  uncertainty k = 0.641111
        25        34        35        36     9        0.000000        0.011055         1    ;  uncertainty k = 0.425259
        25        34        35        36     9      180.000000       14.953749         2    ;  uncertainty k = 0.328993
        25        34        35        36     9        0.000000        1.241934         3    ;  uncertainty k = 0.342959
        25        34        35        36     9      180.000000        1.144042         4    ;  uncertainty k = 0.470191
        25        34        39        38     9        0.000000       -3.954572         1    ;  uncertainty k = 1.035742
        25        34        39        38     9      180.000000        1.199577         2    ;  uncertainty k = 0.494541
        25        34        39        38     9        0.000000        0.552603         3    ;  uncertainty k = 0.196554
        25        34        39        38     9      180.000000        0.408701         4    ;  uncertainty k = 0.071879
        25        34        39        45     9        0.000000        0.678330         1    ;  uncertainty k = 0.150352
        25        34        39        45     9      180.000000        1.438459         2    ;  uncertainty k = 0.504096
        25        34        39        45     9        0.000000        0.609129         3    ;  uncertainty k = 0.196471
        25        34        39        45     9      180.000000        0.167234         4    ;  uncertainty k = 0.108981
        25        34        39        46     9        0.000000        0.678330         1    ;  uncertainty k = 0.150352
        25        34        39        46     9      180.000000        1.438459         2    ;  uncertainty k = 0.504096
        25        34        39        46     9        0.000000        0.609129         3    ;  uncertainty k = 0.196471
        25        34        39        46     9      180.000000        0.167234         4    ;  uncertainty k = 0.108981
        26        23        25        34     9        0.000000       -0.152600         1    ;  uncertainty k = 0.906407
        26        23        25        34     9      180.000000       20.432965         2    ;  uncertainty k = 0.275340
        26        23        25        34     9        0.000000       -2.337892         3    ;  uncertainty k = 1.016825
        26        23        25        34     9      180.000000        1.938626         4    ;  uncertainty k = 0.362221
        26        35        34        39     9        0.000000        0.239944         1    ;  uncertainty k = 0.547138
        26        35        34        39     9      180.000000       12.400727         2    ;  uncertainty k = 0.549556
        26        35        34        39     9        0.000000        0.936373         3    ;  uncertainty k = 0.318788
        26        35        34        39     9      180.000000        0.958147         4    ;  uncertainty k = 0.190163
        26        35        36        37     9        0.000000       -8.471687         1    ;  uncertainty k = 1.305576
        26        35        36        37     9      180.000000       -0.738803         2    ;  uncertainty k = 0.986263
        26        35        36        37     9        0.000000        0.572190         3    ;  uncertainty k = 0.535086
        26        35        36        37     9      180.000000        0.223231         4    ;  uncertainty k = 0.263405
        26        35        36        41     9        0.000000        0.153964         1    ;  uncertainty k = 0.629108
        26        35        36        41     9      180.000000        0.393717         2    ;  uncertainty k = 0.317135
        26        35        36        41     9        0.000000        0.658149         3    ;  uncertainty k = 0.161833
        26        35        36        41     9      180.000000       -0.071880         4    ;  uncertainty k = 0.067074
        26        35        36        42     9        0.000000        0.153964         1    ;  uncertainty k = 0.629108
        26        35        36        42     9      180.000000        0.393717         2    ;  uncertainty k = 0.317135
        26        35        36        42     9        0.000000        0.658149         3    ;  uncertainty k = 0.161833
        26        35        36        42     9      180.000000       -0.071880         4    ;  uncertainty k = 0.067074
        28         8         9        29     9        0.000000       -0.089607         1    ;  uncertainty k = 0.175114
        28         8         9        29     9      180.000000        8.775646         2    ;  uncertainty k = 0.510590
        28         8         9        29     9        0.000000       -0.246375         3    ;  uncertainty k = 0.214927
        28         8         9        29     9      180.000000        0.189973         4    ;  uncertainty k = 0.190103
        31        13        14        32     9        0.000000        0.714081         1    ;  uncertainty k = 0.401876
        31        13        14        32     9      180.000000       -0.714701         2    ;  uncertainty k = 0.288764
        31        13        14        32     9        0.000000        0.195032         3    ;  uncertainty k = 0.166161
        31        13        14        32     9      180.000000        0.151924         4    ;  uncertainty k = 0.049304
        32        14        16        68     9        0.000000        1.517573         1    ;  uncertainty k = 0.280340
        32        14        16        68     9      180.000000       -0.682840         2    ;  uncertainty k = 0.153382
        32        14        16        68     9        0.000000       -0.217673         3    ;  uncertainty k = 0.163694
        32        14        16        68     9      180.000000       -0.045475         4    ;  uncertainty k = 0.124283
        32        14        20        60     9        0.000000        1.378248         1    ;  uncertainty k = 0.283982
        32        14        20        60     9      180.000000       -0.518557         2    ;  uncertainty k = 0.212077
        32        14        20        60     9        0.000000       -0.078054         3    ;  uncertainty k = 0.110894
        32        14        20        60     9      180.000000        0.040284         4    ;  uncertainty k = 0.027626
        32        14        20        61     9        0.000000        1.378248         1    ;  uncertainty k = 0.283982
        32        14        20        61     9      180.000000       -0.518557         2    ;  uncertainty k = 0.212077
        32        14        20        61     9        0.000000       -0.078054         3    ;  uncertainty k = 0.110894
        32        14        20        61     9      180.000000        0.040284         4    ;  uncertainty k = 0.027626
        33        21        16        68     9        0.000000        0.541481         1    ;  uncertainty k = 0.398177
        33        21        16        68     9      180.000000       -0.622570         2    ;  uncertainty k = 0.184277
        33        21        16        68     9        0.000000        0.191619         3    ;  uncertainty k = 0.116496
        33        21        16        68     9      180.000000        0.189193         4    ;  uncertainty k = 0.076095
        34        35        36        37     9        0.000000       -4.140071         1    ;  uncertainty k = 1.925675
        34        35        36        37     9      180.000000        2.074247         2    ;  uncertainty k = 0.552905
        34        35        36        37     9        0.000000       -0.109904         3    ;  uncertainty k = 0.505232
        34        35        36        37     9      180.000000        0.002033         4    ;  uncertainty k = 0.168271
        34        35        36        41     9        0.000000        0.751076         1    ;  uncertainty k = 0.572851
        34        35        36        41     9      180.000000        0.321327         2    ;  uncertainty k = 0.277446
        34        35        36        41     9        0.000000       -0.191165         3    ;  uncertainty k = 0.140749
        34        35        36        41     9      180.000000       -0.337116         4    ;  uncertainty k = 0.203995
        34        35        36        42     9        0.000000        0.751076         1    ;  uncertainty k = 0.572851
        34        35        36        42     9      180.000000        0.321327         2    ;  uncertainty k = 0.277446
        34        35        36        42     9        0.000000       -0.191165         3    ;  uncertainty k = 0.140749
        34        35        36        42     9      180.000000       -0.337116         4    ;  uncertainty k = 0.203995
        34        39        38        37     9        0.000000       -2.230974         1    ;  uncertainty k = 1.801449
        34        39        38        37     9      180.000000       -1.841150         2    ;  uncertainty k = 0.733686
        34        39        38        37     9        0.000000        2.407959         3    ;  uncertainty k = 0.680334
        34        39        38        37     9      180.000000       -0.535745         4    ;  uncertainty k = 0.301690
        34        39        38        43     9        0.000000        1.199598         1    ;  uncertainty k = 0.377899
        34        39        38        43     9      180.000000       -1.613470         2    ;  uncertainty k = 0.549592
        34        39        38        43     9        0.000000        0.472706         3    ;  uncertainty k = 0.260800
        34        39        38        43     9      180.000000        0.111560         4    ;  uncertainty k = 0.091588
        34        39        38        44     9        0.000000        1.199598         1    ;  uncertainty k = 0.377899
        34        39        38        44     9      180.000000       -1.613470         2    ;  uncertainty k = 0.549592
        34        39        38        44     9        0.000000        0.472706         3    ;  uncertainty k = 0.260800
        34        39        38        44     9      180.000000        0.111560         4    ;  uncertainty k = 0.091588
        35        34        39        38     9        0.000000       -4.440652         1    ;  uncertainty k = 1.431166
        35        34        39        38     9      180.000000        4.155396         2    ;  uncertainty k = 1.296225
        35        34        39        38     9        0.000000       -0.642889         3    ;  uncertainty k = 0.597439
        35        34        39        38     9      180.000000       -0.217610         4    ;  uncertainty k = 0.318749
        35        34        39        45     9        0.000000        0.013025         1    ;  uncertainty k = 0.359065
        35        34        39        45     9      180.000000        1.250042         2    ;  uncertainty k = 0.490358
        35        34        39        45     9        0.000000        0.121610         3    ;  uncertainty k = 0.182463
        35        34        39        45     9      180.000000       -0.043715         4    ;  uncertainty k = 0.054548
        35        34        39        46     9        0.000000        0.013025         1    ;  uncertainty k = 0.359065
        35        34        39        46     9      180.000000        1.250042         2    ;  uncertainty k = 0.490358
        35        34        39        46     9        0.000000        0.121610         3    ;  uncertainty k = 0.182463
        35        34        39        46     9      180.000000       -0.043715         4    ;  uncertainty k = 0.054548
        35        36        37        38     9        0.000000       -2.931117         1    ;  uncertainty k = 2.436693
        35        36        37        38     9      180.000000       -1.451129         2    ;  uncertainty k = 0.464093
        35        36        37        38     9        0.000000        1.404828         3    ;  uncertainty k = 0.130307
        35        36        37        38     9      180.000000       -0.528609         4    ;  uncertainty k = 0.249297
        35        36        37        40     9        0.000000       -2.021362         1    ;  uncertainty k = 1.008927
        35        36        37        40     9      180.000000       -1.118312         2    ;  uncertainty k = 0.472230
        35        36        37        40     9        0.000000        1.258207         3    ;  uncertainty k = 0.234248
        35        36        37        40     9      180.000000       -0.045254         4    ;  uncertainty k = 0.250793
        36        35        34        39     9        0.000000        0.282381         1    ;  uncertainty k = 0.657141
        36        35        34        39     9      180.000000       10.551064         2    ;  uncertainty k = 0.221306
        36        35        34        39     9        0.000000        1.077819         3    ;  uncertainty k = 0.516713
        36        35        34        39     9      180.000000        0.991474         4    ;  uncertainty k = 0.186199
        36        37        38        39     9        0.000000       -4.350974         1    ;  uncertainty k = 2.057076
        36        37        38        39     9      180.000000       -1.496991         2    ;  uncertainty k = 0.799614
        36        37        38        39     9        0.000000        0.281379         3    ;  uncertainty k = 0.338606
        36        37        38        39     9      180.000000       -0.187310         4    ;  uncertainty k = 0.252807
        36        37        38        43     9        0.000000       -6.987612         1    ;  uncertainty k = 0.982733
        36        37        38        43     9      180.000000       -0.297910         2    ;  uncertainty k = 0.446998
        36        37        38        43     9        0.000000        0.675891         3    ;  uncertainty k = 0.207193
        36        37        38        43     9      180.000000       -0.045061         4    ;  uncertainty k = 0.100310
        36        37        38        44     9        0.000000       -6.987612         1    ;  uncertainty k = 0.982733
        36        37        38        44     9      180.000000       -0.297910         2    ;  uncertainty k = 0.446998
        36        37        38        44     9        0.000000        0.675891         3    ;  uncertainty k = 0.207193
        36        37        38        44     9      180.000000       -0.045061         4    ;  uncertainty k = 0.100310
        36        37        40        47     9        0.000000       -4.178510         1    ;  uncertainty k = 0.410688
        36        37        40        47     9      180.000000       -2.187807         2    ;  uncertainty k = 0.398638
        36        37        40        47     9        0.000000        1.157619         3    ;  uncertainty k = 0.069416
        36        37        40        47     9      180.000000        0.075129         4    ;  uncertainty k = 0.097696
        36        37        40        48     9        0.000000       -4.178510         1    ;  uncertainty k = 0.410688
        36        37        40        48     9      180.000000       -2.187807         2    ;  uncertainty k = 0.398638
        36        37        40        48     9        0.000000        1.157619         3    ;  uncertainty k = 0.069416
        36        37        40        48     9      180.000000        0.075129         4    ;  uncertainty k = 0.097696
        36        37        40        49     9        0.000000       -4.178510         1    ;  uncertainty k = 0.410688
        36        37        40        49     9      180.000000       -2.187807         2    ;  uncertainty k = 0.398638
        36        37        40        49     9        0.000000        1.157619         3    ;  uncertainty k = 0.069416
        36        37        40        49     9      180.000000        0.075129         4    ;  uncertainty k = 0.097696
        37        38        39        45     9        0.000000       -0.446420         1    ;  uncertainty k = 0.389425
        37        38        39        45     9      180.000000       -0.446895         2    ;  uncertainty k = 0.443633
        37        38        39        45     9        0.000000        1.043482         3    ;  uncertainty k = 0.139130
        37        38        39        45     9      180.000000       -0.054508         4    ;  uncertainty k = 0.166266
        37        38        39        46     9        0.000000       -0.446420         1    ;  uncertainty k = 0.389425
        37        38        39        46     9      180.000000       -0.446895         2    ;  uncertainty k = 0.443633
        37        38        39        46     9        0.000000        1.043482         3    ;  uncertainty k = 0.139130
        37        38        39        46     9      180.000000       -0.054508         4    ;  uncertainty k = 0.166266
        38        37        36        41     9        0.000000       -4.951174         1    ;  uncertainty k = 1.276230
        38        37        36        41     9      180.000000       -0.772512         2    ;  uncertainty k = 0.594344
        38        37        36        41     9        0.000000        0.687582         3    ;  uncertainty k = 0.234878
        38        37        36        41     9      180.000000        0.165440         4    ;  uncertainty k = 0.126758
        38        37        36        42     9        0.000000       -4.951174         1    ;  uncertainty k = 1.276230
        38        37        36        42     9      180.000000       -0.772512         2    ;  uncertainty k = 0.594344
        38        37        36        42     9        0.000000        0.687582         3    ;  uncertainty k = 0.234878
        38        37        36        42     9      180.000000        0.165440         4    ;  uncertainty k = 0.126758
        38        37        40        47     9        0.000000       -4.259086         1    ;  uncertainty k = 0.974846
        38        37        40        47     9      180.000000       -2.027003         2    ;  uncertainty k = 0.417753
        38        37        40        47     9        0.000000        1.017651         3    ;  uncertainty k = 0.103023
        38        37        40        47     9      180.000000        0.065258         4    ;  uncertainty k = 0.091860
        38        37        40        48     9        0.000000       -4.259086         1    ;  uncertainty k = 0.974846
        38        37        40        48     9      180.000000       -2.027003         2    ;  uncertainty k = 0.417753
        38        37        40        48     9        0.000000        1.017651         3    ;  uncertainty k = 0.103023
        38        37        40        48     9      180.000000        0.065258         4    ;  uncertainty k = 0.091860
        38        37        40        49     9        0.000000       -4.259086         1    ;  uncertainty k = 0.974846
        38        37        40        49     9      180.000000       -2.027003         2    ;  uncertainty k = 0.417753
        38        37        40        49     9        0.000000        1.017651         3    ;  uncertainty k = 0.103023
        38        37        40        49     9      180.000000        0.065258         4    ;  uncertainty k = 0.091860
        39        38        37        40     9        0.000000       -2.366425         1    ;  uncertainty k = 0.799682
        39        38        37        40     9      180.000000       -0.858215         2    ;  uncertainty k = 0.575132
        39        38        37        40     9        0.000000        0.300582         3    ;  uncertainty k = 0.302529
        39        38        37        40     9      180.000000        0.326407         4    ;  uncertainty k = 0.081722
        40        37        36        41     9        0.000000       -2.503106         1    ;  uncertainty k = 0.610923
        40        37        36        41     9      180.000000       -1.207857         2    ;  uncertainty k = 0.461275
        40        37        36        41     9        0.000000        0.607046         3    ;  uncertainty k = 0.147323
        40        37        36        41     9      180.000000        0.178325         4    ;  uncertainty k = 0.088460
        40        37        36        42     9        0.000000       -2.503106         1    ;  uncertainty k = 0.610923
        40        37        36        42     9      180.000000       -1.207857         2    ;  uncertainty k = 0.461275
        40        37        36        42     9        0.000000        0.607046         3    ;  uncertainty k = 0.147323
        40        37        36        42     9      180.000000        0.178325         4    ;  uncertainty k = 0.088460
        40        37        38        43     9        0.000000       -3.143701         1    ;  uncertainty k = 0.576024
        40        37        38        43     9      180.000000       -1.381403         2    ;  uncertainty k = 0.223671
        40        37        38        43     9        0.000000        0.354530         3    ;  uncertainty k = 0.126408
        40        37        38        43     9      180.000000        0.148173         4    ;  uncertainty k = 0.137426
        40        37        38        44     9        0.000000       -3.143701         1    ;  uncertainty k = 0.576024
        40        37        38        44     9      180.000000       -1.381403         2    ;  uncertainty k = 0.223671
        40        37        38        44     9        0.000000        0.354530         3    ;  uncertainty k = 0.126408
        40        37        38        44     9      180.000000        0.148173         4    ;  uncertainty k = 0.137426
        43        38        39        45     9        0.000000       -0.690419         1    ;  uncertainty k = 0.249272
        43        38        39        45     9      180.000000        0.819889         2    ;  uncertainty k = 0.297922
        43        38        39        45     9        0.000000        0.232501         3    ;  uncertainty k = 0.086816
        43        38        39        45     9      180.000000       -0.277806         4    ;  uncertainty k = 0.067741
        43        38        39        46     9        0.000000       -0.690419         1    ;  uncertainty k = 0.249272
        43        38        39        46     9      180.000000        0.819889         2    ;  uncertainty k = 0.297922
        43        38        39        46     9        0.000000        0.232501         3    ;  uncertainty k = 0.086816
        43        38        39        46     9      180.000000       -0.277806         4    ;  uncertainty k = 0.067741
        44        38        39        45     9        0.000000       -0.690419         1    ;  uncertainty k = 0.249272
        44        38        39        45     9      180.000000        0.819889         2    ;  uncertainty k = 0.297922
        44        38        39        45     9        0.000000        0.232501         3    ;  uncertainty k = 0.086816
        44        38        39        45     9      180.000000       -0.277806         4    ;  uncertainty k = 0.067741
        44        38        39        46     9        0.000000       -0.690419         1    ;  uncertainty k = 0.249272
        44        38        39        46     9      180.000000        0.819889         2    ;  uncertainty k = 0.297922
        44        38        39        46     9        0.000000        0.232501         3    ;  uncertainty k = 0.086816
        44        38        39        46     9      180.000000       -0.277806         4    ;  uncertainty k = 0.067741
        50        18        17        55     9        0.000000        2.074967         1    ;  uncertainty k = 0.921198
        50        18        17        55     9      180.000000       -0.794571         2    ;  uncertainty k = 0.180952
        50        18        17        55     9        0.000000        0.466866         3    ;  uncertainty k = 0.273235
        50        18        17        55     9      180.000000        0.035537         4    ;  uncertainty k = 0.093276
        50        18        17        56     9        0.000000        2.074967         1    ;  uncertainty k = 0.921198
        50        18        17        56     9      180.000000       -0.794571         2    ;  uncertainty k = 0.180952
        50        18        17        56     9        0.000000        0.466866         3    ;  uncertainty k = 0.273235
        50        18        17        56     9      180.000000        0.035537         4    ;  uncertainty k = 0.093276
        50        18        19        58     9        0.000000        2.252951         1    ;  uncertainty k = 0.998081
        50        18        19        58     9      180.000000       -0.859965         2    ;  uncertainty k = 0.120364
        50        18        19        58     9        0.000000        0.534711         3    ;  uncertainty k = 0.219264
        50        18        19        58     9      180.000000        0.057172         4    ;  uncertainty k = 0.086080
        50        18        19        59     9        0.000000        2.252951         1    ;  uncertainty k = 0.998081
        50        18        19        59     9      180.000000       -0.859965         2    ;  uncertainty k = 0.120364
        50        18        19        59     9        0.000000        0.534711         3    ;  uncertainty k = 0.219264
        50        18        19        59     9      180.000000        0.057172         4    ;  uncertainty k = 0.086080
        50        52        53        62     9        0.000000        0.159650         1    ;  uncertainty k = 0.146342
        50        52        53        62     9      180.000000       -0.144813         2    ;  uncertainty k = 0.094204
        50        52        53        62     9        0.000000        0.215227         3    ;  uncertainty k = 0.050987
        50        52        53        62     9      180.000000        0.244118         4    ;  uncertainty k = 0.052779
        50        52        53        63     9        0.000000        0.159650         1    ;  uncertainty k = 0.146342
        50        52        53        63     9      180.000000       -0.144813         2    ;  uncertainty k = 0.094204
        50        52        53        63     9        0.000000        0.215227         3    ;  uncertainty k = 0.050987
        50        52        53        63     9      180.000000        0.244118         4    ;  uncertainty k = 0.052779
        50        52        53        64     9        0.000000        0.159650         1    ;  uncertainty k = 0.146342
        50        52        53        64     9      180.000000       -0.144813         2    ;  uncertainty k = 0.094204
        50        52        53        64     9        0.000000        0.215227         3    ;  uncertainty k = 0.050987
        50        52        53        64     9      180.000000        0.244118         4    ;  uncertainty k = 0.052779
        50        52        54        65     9        0.000000        0.159650         1    ;  uncertainty k = 0.146342
        50        52        54        65     9      180.000000       -0.144813         2    ;  uncertainty k = 0.094204
        50        52        54        65     9        0.000000        0.215227         3    ;  uncertainty k = 0.050987
        50        52        54        65     9      180.000000        0.244118         4    ;  uncertainty k = 0.052779
        50        52        54        66     9        0.000000        0.159650         1    ;  uncertainty k = 0.146342
        50        52        54        66     9      180.000000       -0.144813         2    ;  uncertainty k = 0.094204
        50        52        54        66     9        0.000000        0.215227         3    ;  uncertainty k = 0.050987
        50        52        54        66     9      180.000000        0.244118         4    ;  uncertainty k = 0.052779
        50        52        54        67     9        0.000000        0.159650         1    ;  uncertainty k = 0.146342
        50        52        54        67     9      180.000000       -0.144813         2    ;  uncertainty k = 0.094204
        50        52        54        67     9        0.000000        0.215227         3    ;  uncertainty k = 0.050987
        50        52        54        67     9      180.000000        0.244118         4    ;  uncertainty k = 0.052779
        51        50        18        57     9        0.000000       -0.646773         1    ;  uncertainty k = 0.397646
        51        50        18        57     9      180.000000        3.762065         2    ;  uncertainty k = 0.492695
        51        50        18        57     9        0.000000        1.483897         3    ;  uncertainty k = 0.235291
        51        50        18        57     9      180.000000       -0.025919         4    ;  uncertainty k = 0.096422
        51        50        52        53     9        0.000000        6.844605         1    ;  uncertainty k = 0.882211
        51        50        52        53     9      180.000000       19.790839         2    ;  uncertainty k = 0.105250
        51        50        52        53     9        0.000000       -0.220230         3    ;  uncertainty k = 0.161100
        51        50        52        53     9      180.000000       -1.123904         4    ;  uncertainty k = 0.136735
        51        50        52        54     9        0.000000        6.844605         1    ;  uncertainty k = 0.882211
        51        50        52        54     9      180.000000       19.790839         2    ;  uncertainty k = 0.105250
        51        50        52        54     9        0.000000       -0.220230         3    ;  uncertainty k = 0.161100
        51        50        52        54     9      180.000000       -1.123904         4    ;  uncertainty k = 0.136735
        52        50        18        57     9        0.000000       -0.975826         1    ;  uncertainty k = 0.419407
        52        50        18        57     9      180.000000        2.303974         2    ;  uncertainty k = 0.241164
        52        50        18        57     9        0.000000        0.361698         3    ;  uncertainty k = 0.116719
        52        50        18        57     9      180.000000        0.170218         4    ;  uncertainty k = 0.047482
        53        52        54        65     9        0.000000       -0.681994         1    ;  uncertainty k = 0.166187
        53        52        54        65     9      180.000000       -1.033629         2    ;  uncertainty k = 0.139918
        53        52        54        65     9        0.000000        1.312135         3    ;  uncertainty k = 0.057549
        53        52        54        65     9      180.000000        0.172025         4    ;  uncertainty k = 0.029064
        53        52        54        66     9        0.000000       -0.681994         1    ;  uncertainty k = 0.166187
        53        52        54        66     9      180.000000       -1.033629         2    ;  uncertainty k = 0.139918
        53        52        54        66     9        0.000000        1.312135         3    ;  uncertainty k = 0.057549
        53        52        54        66     9      180.000000        0.172025         4    ;  uncertainty k = 0.029064
        53        52        54        67     9        0.000000       -0.681994         1    ;  uncertainty k = 0.166187
        53        52        54        67     9      180.000000       -1.033629         2    ;  uncertainty k = 0.139918
        53        52        54        67     9        0.000000        1.312135         3    ;  uncertainty k = 0.057549
        53        52        54        67     9      180.000000        0.172025         4    ;  uncertainty k = 0.029064
        54        52        53        62     9        0.000000       -0.681994         1    ;  uncertainty k = 0.166187
        54        52        53        62     9      180.000000       -1.033629         2    ;  uncertainty k = 0.139918
        54        52        53        62     9        0.000000        1.312135         3    ;  uncertainty k = 0.057549
        54        52        53        62     9      180.000000        0.172025         4    ;  uncertainty k = 0.029064
        54        52        53        63     9        0.000000       -0.681994         1    ;  uncertainty k = 0.166187
        54        52        53        63     9      180.000000       -1.033629         2    ;  uncertainty k = 0.139918
        54        52        53        63     9        0.000000        1.312135         3    ;  uncertainty k = 0.057549
        54        52        53        63     9      180.000000        0.172025         4    ;  uncertainty k = 0.029064
        54        52        53        64     9        0.000000       -0.681994         1    ;  uncertainty k = 0.166187
        54        52        53        64     9      180.000000       -1.033629         2    ;  uncertainty k = 0.139918
        54        52        53        64     9        0.000000        1.312135         3    ;  uncertainty k = 0.057549
        54        52        53        64     9      180.000000        0.172025         4    ;  uncertainty k = 0.029064
        55        17        16        68     9        0.000000        1.227188         1    ;  uncertainty k = 0.333718
        55        17        16        68     9      180.000000       -0.559059         2    ;  uncertainty k = 0.228850
        55        17        16        68     9        0.000000       -0.052658         3    ;  uncertainty k = 0.148156
        55        17        16        68     9      180.000000        0.050866         4    ;  uncertainty k = 0.043410
        55        17        18        57     9        0.000000        1.275091         1    ;  uncertainty k = 0.308666
        55        17        18        57     9      180.000000       -0.191825         2    ;  uncertainty k = 0.161770
        55        17        18        57     9        0.000000       -0.005639         3    ;  uncertainty k = 0.106020
        55        17        18        57     9      180.000000        0.069270         4    ;  uncertainty k = 0.064132
        56        17        16        68     9        0.000000        1.227188         1    ;  uncertainty k = 0.333718
        56        17        16        68     9      180.000000       -0.559059         2    ;  uncertainty k = 0.228850
        56        17        16        68     9        0.000000       -0.052658         3    ;  uncertainty k = 0.148156
        56        17        16        68     9      180.000000        0.050866         4    ;  uncertainty k = 0.043410
        56        17        18        57     9        0.000000        1.275091         1    ;  uncertainty k = 0.308666
        56        17        18        57     9      180.000000       -0.191825         2    ;  uncertainty k = 0.161770
        56        17        18        57     9        0.000000       -0.005639         3    ;  uncertainty k = 0.106020
        56        17        18        57     9      180.000000        0.069270         4    ;  uncertainty k = 0.064132
        57        18        19        58     9        0.000000        1.375228         1    ;  uncertainty k = 0.292892
        57        18        19        58     9      180.000000       -0.112288         2    ;  uncertainty k = 0.227466
        57        18        19        58     9        0.000000       -0.024960         3    ;  uncertainty k = 0.142904
        57        18        19        58     9      180.000000        0.069958         4    ;  uncertainty k = 0.050452
        57        18        19        59     9        0.000000        1.375228         1    ;  uncertainty k = 0.292892
        57        18        19        59     9      180.000000       -0.112288         2    ;  uncertainty k = 0.227466
        57        18        19        59     9        0.000000       -0.024960         3    ;  uncertainty k = 0.142904
        57        18        19        59     9      180.000000        0.069958         4    ;  uncertainty k = 0.050452
        58        19        20        60     9        0.000000        2.326715         1    ;  uncertainty k = 0.674870
        58        19        20        60     9      180.000000       -0.090546         2    ;  uncertainty k = 0.158885
        58        19        20        60     9        0.000000        0.306144         3    ;  uncertainty k = 0.135782
        58        19        20        60     9      180.000000        0.130862         4    ;  uncertainty k = 0.038651
        58        19        20        61     9        0.000000        2.326715         1    ;  uncertainty k = 0.674870
        58        19        20        61     9      180.000000       -0.090546         2    ;  uncertainty k = 0.158885
        58        19        20        61     9        0.000000        0.306144         3    ;  uncertainty k = 0.135782
        58        19        20        61     9      180.000000        0.130862         4    ;  uncertainty k = 0.038651
        59        19        20        60     9        0.000000        2.326715         1    ;  uncertainty k = 0.674870
        59        19        20        60     9      180.000000       -0.090546         2    ;  uncertainty k = 0.158885
        59        19        20        60     9        0.000000        0.306144         3    ;  uncertainty k = 0.135782
        59        19        20        60     9      180.000000        0.130862         4    ;  uncertainty k = 0.038651
        59        19        20        61     9        0.000000        2.326715         1    ;  uncertainty k = 0.674870
        59        19        20        61     9      180.000000       -0.090546         2    ;  uncertainty k = 0.158885
        59        19        20        61     9        0.000000        0.306144         3    ;  uncertainty k = 0.135782
        59        19        20        61     9      180.000000        0.130862         4    ;  uncertainty k = 0.038651

[ dihedrals ] ; impropers
;       ai        aj        ak        al funct           phase               k        pn
         1         3         7        11     4      180.000000       18.035618         2    ;  uncertainty k = 0.063920
         1         7        11         3     4      180.000000       18.035618         2    ;  uncertainty k = 0.063920
         1        11         3         7     4      180.000000       18.035618         2    ;  uncertainty k = 0.063920
         3         1         4         8     4      180.000000        7.251524         2    ;  uncertainty k = 0.249666
         3         4         8         1     4      180.000000        7.251524         2    ;  uncertainty k = 0.249666
         3         8         1         4     4      180.000000        7.251524         2    ;  uncertainty k = 0.249666
         4         3         5        27     4      180.000000        5.922715         2    ;  uncertainty k = 0.289536
         4         5        27         3     4      180.000000        5.922715         2    ;  uncertainty k = 0.289536
         4        27         3         5     4      180.000000        5.922715         2    ;  uncertainty k = 0.289536
         5         4         6        12     4      180.000000        6.850150         2    ;  uncertainty k = 0.273480
         5         6        12         4     4      180.000000        6.850150         2    ;  uncertainty k = 0.273480
         5        12         4         6     4      180.000000        6.850150         2    ;  uncertainty k = 0.273480
         6         5         7        69     4      180.000000       14.659571         2    ;  uncertainty k = 0.043569
         6         7        69         5     4      180.000000       14.659571         2    ;  uncertainty k = 0.043569
         6        69         5         7     4      180.000000       14.659571         2    ;  uncertainty k = 0.043569
         8         3         9        28     4      180.000000        4.689271         2    ;  uncertainty k = 0.170897
         8         9        28         3     4      180.000000        4.689271         2    ;  uncertainty k = 0.170897
         8        28         3         9     4      180.000000        4.689271         2    ;  uncertainty k = 0.170897
         9         8        10        29     4      180.000000        3.444928         2    ;  uncertainty k = 0.119534
         9        10        29         8     4      180.000000        3.444928         2    ;  uncertainty k = 0.119534
         9        29         8        10     4      180.000000        3.444928         2    ;  uncertainty k = 0.119534
        10         2         9        11     4      180.000000       14.385192         2    ;  uncertainty k = 0.048316
        10         9        11         2     4      180.000000       14.385192         2    ;  uncertainty k = 0.048316
        10        11         2         9     4      180.000000       14.385192         2    ;  uncertainty k = 0.048316
        11         1        10        30     4      180.000000        3.137622         2    ;  uncertainty k = 0.388434
        11        10        30         1     4      180.000000        3.137622         2    ;  uncertainty k = 0.388434
        11        30         1        10     4      180.000000        3.137622         2    ;  uncertainty k = 0.388434
        12         5        13        15     4      180.000000       51.136971         2    ;  uncertainty k = 0.048659
        12        13        15         5     4      180.000000       51.136971         2    ;  uncertainty k = 0.048659
        12        15         5        13     4      180.000000       51.136971         2    ;  uncertainty k = 0.048659
        22        21        23        24     4      180.000000       49.476644         2    ;  uncertainty k = 0.014914
        22        23        24        21     4      180.000000       49.476644         2    ;  uncertainty k = 0.014914
        22        24        21        23     4      180.000000       49.476644         2    ;  uncertainty k = 0.014914
        23        22        25        26     4      180.000000        4.762177         2    ;  uncertainty k = 0.485670
        23        25        26        22     4      180.000000        4.762177         2    ;  uncertainty k = 0.485670
        23        26        22        25     4      180.000000        4.762177         2    ;  uncertainty k = 0.485670
        34        25        35        39     4      180.000000       10.302524         2    ;  uncertainty k = 0.235813
        34        35        39        25     4      180.000000       10.302524         2    ;  uncertainty k = 0.235813
        34        39        25        35     4      180.000000       10.302524         2    ;  uncertainty k = 0.235813
        35        26        34        36     4      180.000000        2.894551         2    ;  uncertainty k = 0.672593
        35        34        36        26     4      180.000000        2.894551         2    ;  uncertainty k = 0.672593
        35        36        26        34     4      180.000000        2.894551         2    ;  uncertainty k = 0.672593
        50        18        51        52     4      180.000000       51.316646         2    ;  uncertainty k = 0.028239
        50        51        52        18     4      180.000000       51.316646         2    ;  uncertainty k = 0.028239
        50        52        18        51     4      180.000000       51.316646         2    ;  uncertainty k = 0.028239

[ pairs ]
;       ai        aj funct
         1         2     1
         1         5     1
         1         9     1
         1        27     1
         1        28     1
         1        69     1
         2         8     1
         2        29     1
         2        30     1
         3         6     1
         3        10     1
         3        12     1
         3        29     1
         3        30     1
         4         7     1
         4         9     1
         4        11     1
         4        13     1
         4        15     1
         4        28     1
         4        69     1
         5         8     1
         5        14     1
         5        31     1
         6        11     1
         6        13     1
         6        15     1
         6        27     1
         7         8     1
         7        10     1
         7        12     1
         7        30     1
         8        11     1
         8        27     1
         9        30     1
        10        28     1
        11        29     1
        12        16     1
        12        20     1
        12        27     1
        12        32     1
        12        69     1
        13        17     1
        13        19     1
        13        21     1
        13        60     1
        13        61     1
        13        68     1
        14        15     1
        14        18     1
        14        22     1
        14        33     1
        14        55     1
        14        56     1
        14        58     1
        14        59     1
        15        31     1
        16        19     1
        16        23     1
        16        24     1
        16        31     1
        16        50     1
        16        57     1
        16        60     1
        16        61     1
        17        20     1
        17        22     1
        17        32     1
        17        33     1
        17        51     1
        17        52     1
        17        58     1
        17        59     1
        18        21     1
        18        53     1
        18        54     1
        18        60     1
        18        61     1
        18        68     1
        19        32     1
        19        51     1
        19        52     1
        19        55     1
        19        56     1
        20        21     1
        20        31     1
        20        50     1
        20        57     1
        20        68     1
        21        25     1
        21        26     1
        21        32     1
        21        55     1
        21        56     1
        22        34     1
        22        35     1
        22        68     1
        23        33     1
        23        36     1
        23        39     1
        24        25     1
        24        26     1
        24        33     1
        25        36     1
        25        38     1
        25        45     1
        25        46     1
        26        37     1
        26        39     1
        26        41     1
        26        42     1
        28        29     1
        31        32     1
        32        60     1
        32        61     1
        32        68     1
        33        68     1
        34        37     1
        34        41     1
        34        42     1
        34        43     1
        34        44     1
        35        38     1
        35        40     1
        35        45     1
        35        46     1
        36        39     1
        36        43     1
        36        44     1
        36        47     1
        36        48     1
        36        49     1
        37        45     1
        37        46     1
        38        41     1
        38        42     1
        38        47     1
        38        48     1
        38        49     1
        39        40     1
        40        41     1
        40        42     1
        40        43     1
        40        44     1
        43        45     1
        43        46     1
        44        45     1
        44        46     1
        50        55     1
        50        56     1
        50        58     1
        50        59     1
        50        62     1
        50        63     1
        50        64     1
        50        65     1
        50        66     1
        50        67     1
        51        53     1
        51        54     1
        51        57     1
        52        57     1
        53        65     1
        53        66     1
        53        67     1
        54        62     1
        54        63     1
        54        64     1
        55        57     1
        55        68     1
        56        57     1
        56        68     1
        57        58     1
        57        59     1
        58        60     1
        58        61     1
        59        60     1
        59        61     1
