; ITP file created by ByteFF-joint-25, 2025-07-14 11:37:34.597507

[ atomtypes ]
;name           bonded.type        at.num        mass        charge   ptype           sigma         epsilon
 c0bf                                   6      0.0000       0.00000       A     3.31535e-01     4.13187e-01    ;  uncertainty sigma = 0.000015, epsilon = 0.000855
 cl1bf                                 17      0.0000       0.00000       A     3.46597e-01     1.10389e+00    ;  uncertainty sigma = 0.000012, epsilon = 0.000891
 c2bf                                   6      0.0000       0.00000       A     3.31528e-01     4.13163e-01    ;  uncertainty sigma = 0.000007, epsilon = 0.001118
 c3bf                                   6      0.0000       0.00000       A     3.31558e-01     4.12932e-01    ;  uncertainty sigma = 0.000011, epsilon = 0.001078
 c4bf                                   6      0.0000       0.00000       A     3.31541e-01     4.13384e-01    ;  uncertainty sigma = 0.000026, epsilon = 0.000843
 n5bf                                   7      0.0000       0.00000       A     3.38470e-01     3.94223e-01    ;  uncertainty sigma = 0.000026, epsilon = 0.001473
 n6bf                                   7      0.0000       0.00000       A     3.38341e-01     3.93048e-01    ;  uncertainty sigma = 0.000034, epsilon = 0.001133
 c7bf                                   6      0.0000       0.00000       A     3.31511e-01     4.13406e-01    ;  uncertainty sigma = 0.000010, epsilon = 0.000733
 c8bf                                   6      0.0000       0.00000       A     3.31526e-01     4.13388e-01    ;  uncertainty sigma = 0.000005, epsilon = 0.000462
 c9bf                                   6      0.0000       0.00000       A     3.31537e-01     4.13138e-01    ;  uncertainty sigma = 0.000005, epsilon = 0.000908
 c10bf                                  6      0.0000       0.00000       A     3.31525e-01     4.13264e-01    ;  uncertainty sigma = 0.000007, epsilon = 0.000502
 c11bf                                  6      0.0000       0.00000       A     3.31554e-01     4.12285e-01    ;  uncertainty sigma = 0.000017, epsilon = 0.001317
 n12bf                                  7      0.0000       0.00000       A     3.27053e-01     4.89584e-01    ;  uncertainty sigma = 0.000030, epsilon = 0.002781
 c13bf                                  6      0.0000       0.00000       A     3.39789e-01     4.50800e-01    ;  uncertainty sigma = 0.000020, epsilon = 0.000925
 o14bf                                  8      0.0000       0.00000       A     3.04812e-01     6.12592e-01    ;  uncertainty sigma = 0.000024, epsilon = 0.001034
 c15bf                                  6      0.0000       0.00000       A     3.39779e-01     4.50691e-01    ;  uncertainty sigma = 0.000021, epsilon = 0.001068
 c16bf                                  6      0.0000       0.00000       A     3.39785e-01     4.51177e-01    ;  uncertainty sigma = 0.000013, epsilon = 0.000568
 c17bf                                  6      0.0000       0.00000       A     3.39788e-01     4.50813e-01    ;  uncertainty sigma = 0.000005, epsilon = 0.001015
 c18bf                                  6      0.0000       0.00000       A     3.39784e-01     4.51089e-01    ;  uncertainty sigma = 0.000005, epsilon = 0.000646
 c19bf                                  6      0.0000       0.00000       A     3.39763e-01     4.50994e-01    ;  uncertainty sigma = 0.000009, epsilon = 0.000666
 n20bf                                  7      0.0000       0.00000       A     3.27037e-01     4.89849e-01    ;  uncertainty sigma = 0.000029, epsilon = 0.003194
 c21bf                                  6      0.0000       0.00000       A     3.31529e-01     4.12690e-01    ;  uncertainty sigma = 0.000018, epsilon = 0.001128
 c22bf                                  6      0.0000       0.00000       A     3.31525e-01     4.13652e-01    ;  uncertainty sigma = 0.000013, epsilon = 0.001225
 o23bf                                  8      0.0000       0.00000       A     3.04890e-01     6.12219e-01    ;  uncertainty sigma = 0.000024, epsilon = 0.000874
 n24bf                                  7      0.0000       0.00000       A     3.38354e-01     3.93161e-01    ;  uncertainty sigma = 0.000020, epsilon = 0.001245
 s25bf                                 16      0.0000       0.00000       A     3.53288e-01     1.18179e+00    ;  uncertainty sigma = 0.000032, epsilon = 0.002346
 h26bf                                  1      0.0000       0.00000       A     2.62585e-01     6.72100e-02    ;  uncertainty sigma = 0.000027, epsilon = 0.000935
 h27bf                                  1      0.0000       0.00000       A     2.62561e-01     6.70263e-02    ;  uncertainty sigma = 0.000011, epsilon = 0.000439
 h28bf                                  1      0.0000       0.00000       A     2.62554e-01     6.70089e-02    ;  uncertainty sigma = 0.000010, epsilon = 0.000673
 h29bf                                  1      0.0000       0.00000       A     2.62575e-01     6.67475e-02    ;  uncertainty sigma = 0.000019, epsilon = 0.000618
 h30bf                                  1      0.0000       0.00000       A     1.10671e-01     4.15432e-02    ;  uncertainty sigma = 0.000099, epsilon = 0.000844
 h31bf                                  1      0.0000       0.00000       A     2.42165e-01     8.67649e-02    ;  uncertainty sigma = 0.000033, epsilon = 0.001355
 h32bf                                  1      0.0000       0.00000       A     1.10666e-01     4.15404e-02    ;  uncertainty sigma = 0.000113, epsilon = 0.000907
 c33bf                                  6      0.0000       0.00000       A     3.31531e-01     4.13284e-01    ;  uncertainty sigma = 0.000022, epsilon = 0.000692
 c34bf                                  6      0.0000       0.00000       A     3.31510e-01     4.13232e-01    ;  uncertainty sigma = 0.000021, epsilon = 0.000971
 c35bf                                  6      0.0000       0.00000       A     3.39772e-01     4.51291e-01    ;  uncertainty sigma = 0.000007, epsilon = 0.001369
 n36bf                                  7      0.0000       0.00000       A     3.36491e-01     3.58344e-01    ;  uncertainty sigma = 0.000019, epsilon = 0.001758
 c37bf                                  6      0.0000       0.00000       A     3.39770e-01     4.51225e-01    ;  uncertainty sigma = 0.000009, epsilon = 0.000671
 c38bf                                  6      0.0000       0.00000       A     3.39762e-01     4.51164e-01    ;  uncertainty sigma = 0.000008, epsilon = 0.001424
 c39bf                                  6      0.0000       0.00000       A     3.39770e-01     4.51318e-01    ;  uncertainty sigma = 0.000003, epsilon = 0.000740
 h40bf                                  1      0.0000       0.00000       A     2.42250e-01     8.62902e-02    ;  uncertainty sigma = 0.000037, epsilon = 0.000964
 h41bf                                  1      0.0000       0.00000       A     2.42250e-01     8.62902e-02    ;  uncertainty sigma = 0.000037, epsilon = 0.000964
 h42bf                                  1      0.0000       0.00000       A     2.42218e-01     8.69005e-02    ;  uncertainty sigma = 0.000021, epsilon = 0.000739
 h43bf                                  1      0.0000       0.00000       A     2.42218e-01     8.69005e-02    ;  uncertainty sigma = 0.000021, epsilon = 0.000739
 h44bf                                  1      0.0000       0.00000       A     2.60015e-01     8.68230e-02    ;  uncertainty sigma = 0.000020, epsilon = 0.000739
 h45bf                                  1      0.0000       0.00000       A     2.60015e-01     8.68230e-02    ;  uncertainty sigma = 0.000020, epsilon = 0.000739
 h46bf                                  1      0.0000       0.00000       A     2.42198e-01     8.68693e-02    ;  uncertainty sigma = 0.000014, epsilon = 0.000543
 h47bf                                  1      0.0000       0.00000       A     2.42198e-01     8.68693e-02    ;  uncertainty sigma = 0.000014, epsilon = 0.000543
 h48bf                                  1      0.0000       0.00000       A     2.42198e-01     8.68693e-02    ;  uncertainty sigma = 0.000014, epsilon = 0.000543
 c49bf                                  6      0.0000       0.00000       A     3.31545e-01     4.13066e-01    ;  uncertainty sigma = 0.000011, epsilon = 0.001034
 o50bf                                  8      0.0000       0.00000       A     3.04819e-01     6.12467e-01    ;  uncertainty sigma = 0.000013, epsilon = 0.000996
 n51bf                                  7      0.0000       0.00000       A     3.18136e-01     6.84509e-01    ;  uncertainty sigma = 0.000019, epsilon = 0.001339
 c52bf                                  6      0.0000       0.00000       A     3.39777e-01     4.50876e-01    ;  uncertainty sigma = 0.000006, epsilon = 0.000504
 c53bf                                  6      0.0000       0.00000       A     3.39777e-01     4.50876e-01    ;  uncertainty sigma = 0.000006, epsilon = 0.000504
 h54bf                                  1      0.0000       0.00000       A     2.60016e-01     8.65219e-02    ;  uncertainty sigma = 0.000021, epsilon = 0.000613
 h55bf                                  1      0.0000       0.00000       A     2.60016e-01     8.65219e-02    ;  uncertainty sigma = 0.000021, epsilon = 0.000613
 h56bf                                  1      0.0000       0.00000       A     2.60030e-01     8.70270e-02    ;  uncertainty sigma = 0.000011, epsilon = 0.000538
 h57bf                                  1      0.0000       0.00000       A     2.60020e-01     8.66352e-02    ;  uncertainty sigma = 0.000016, epsilon = 0.000625
 h58bf                                  1      0.0000       0.00000       A     2.60020e-01     8.66352e-02    ;  uncertainty sigma = 0.000016, epsilon = 0.000625
 h59bf                                  1      0.0000       0.00000       A     2.60024e-01     8.67210e-02    ;  uncertainty sigma = 0.000008, epsilon = 0.000629
 h60bf                                  1      0.0000       0.00000       A     2.60024e-01     8.67210e-02    ;  uncertainty sigma = 0.000008, epsilon = 0.000629
 h61bf                                  1      0.0000       0.00000       A     2.42196e-01     8.67627e-02    ;  uncertainty sigma = 0.000011, epsilon = 0.000510
 h62bf                                  1      0.0000       0.00000       A     2.42196e-01     8.67627e-02    ;  uncertainty sigma = 0.000011, epsilon = 0.000510
 h63bf                                  1      0.0000       0.00000       A     2.42196e-01     8.67627e-02    ;  uncertainty sigma = 0.000011, epsilon = 0.000510
 h64bf                                  1      0.0000       0.00000       A     2.42196e-01     8.67627e-02    ;  uncertainty sigma = 0.000011, epsilon = 0.000510
 h65bf                                  1      0.0000       0.00000       A     2.42196e-01     8.67627e-02    ;  uncertainty sigma = 0.000011, epsilon = 0.000510
 h66bf                                  1      0.0000       0.00000       A     2.42196e-01     8.67627e-02    ;  uncertainty sigma = 0.000011, epsilon = 0.000510
 h67bf                                  1      0.0000       0.00000       A     2.42143e-01     8.68216e-02    ;  uncertainty sigma = 0.000035, epsilon = 0.001353

[ moleculetype ]
;name             nrexcl
 MOL                   3

[ atoms ]
;       nr            type      resi   res      atom      cgnr      charge          mass ; qtot
         1            c0bf         1   UNL        c0         1     0.34400       12.0110 ; qtot    0.344
         2           cl1bf         1   UNL       cl1         2    -0.10226       35.4530 ; qtot    0.242
         3            c2bf         1   UNL        c2         3    -0.12261       12.0110 ; qtot    0.119
         4            c3bf         1   UNL        c3         4    -0.11731       12.0110 ; qtot    0.002
         5            c4bf         1   UNL        c4         5     0.26924       12.0110 ; qtot    0.271
         6            n5bf         1   UNL        n5         6    -0.29592       14.0070 ; qtot   -0.025
         7            n6bf         1   UNL        n6         7    -0.28669       14.0070 ; qtot   -0.312
         8            c7bf         1   UNL        c7         8    -0.10175       12.0110 ; qtot   -0.413
         9            c8bf         1   UNL        c8         9    -0.10373       12.0110 ; qtot   -0.517
        10            c9bf         1   UNL        c9        10     0.03268       12.0110 ; qtot   -0.484
        11           c10bf         1   UNL       c10        11    -0.13846       12.0110 ; qtot   -0.623
        12           c11bf         1   UNL       c11        12     0.58096       12.0110 ; qtot   -0.042
        13           n12bf         1   UNL       n12        13    -0.55209       14.0070 ; qtot   -0.594
        14           c13bf         1   UNL       c13        14     0.10317       12.0110 ; qtot   -0.491
        15           o14bf         1   UNL       o14        15    -0.59995       15.9990 ; qtot   -1.091
        16           c15bf         1   UNL       c15        16     0.10493       12.0110 ; qtot   -0.986
        17           c16bf         1   UNL       c16        17    -0.07517       12.0110 ; qtot   -1.061
        18           c17bf         1   UNL       c17        18    -0.13250       12.0110 ; qtot   -1.193
        19           c18bf         1   UNL       c18        19    -0.06578       12.0110 ; qtot   -1.259
        20           c19bf         1   UNL       c19        20    -0.08734       12.0110 ; qtot   -1.347
        21           n20bf         1   UNL       n20        21    -0.55641       14.0070 ; qtot   -1.903
        22           c21bf         1   UNL       c21        22     0.59414       12.0110 ; qtot   -1.309
        23           c22bf         1   UNL       c22        23     0.37509       12.0110 ; qtot   -0.934
        24           o23bf         1   UNL       o23        24    -0.57698       15.9990 ; qtot   -1.511
        25           n24bf         1   UNL       n24        25    -0.60853       14.0070 ; qtot   -2.119
        26           s25bf         1   UNL       s25        26    -0.11954       32.0670 ; qtot   -2.239
        27           h26bf         1   UNL       h26        27     0.17551        1.0080 ; qtot   -2.063
        28           h27bf         1   UNL       h27        28     0.14527        1.0080 ; qtot   -1.918
        29           h28bf         1   UNL       h28        29     0.15493        1.0080 ; qtot   -1.763
        30           h29bf         1   UNL       h29        30     0.17250        1.0080 ; qtot   -1.591
        31           h30bf         1   UNL       h30        31     0.34010        1.0080 ; qtot   -1.251
        32           h31bf         1   UNL       h31        32     0.07740        1.0080 ; qtot   -1.173
        33           h32bf         1   UNL       h32        33     0.33735        1.0080 ; qtot   -0.836
        34           c33bf         1   UNL       c33        34     0.34886       12.0110 ; qtot   -0.487
        35           c34bf         1   UNL       c34        35    -0.15290       12.0110 ; qtot   -0.640
        36           c35bf         1   UNL       c35        36     0.24342       12.0110 ; qtot   -0.396
        37           n36bf         1   UNL       n36        37    -0.71265       14.0070 ; qtot   -1.109
        38           c37bf         1   UNL       c37        38     0.15896       12.0110 ; qtot   -0.950
        39           c38bf         1   UNL       c38        39    -0.11292       12.0110 ; qtot   -1.063
        40           c39bf         1   UNL       c39        40     0.14692       12.0110 ; qtot   -0.916
        41           h40bf         1   UNL       h40        41     0.05218        1.0080 ; qtot   -0.864
        42           h41bf         1   UNL       h41        42     0.05218        1.0080 ; qtot   -0.812
        43           h42bf         1   UNL       h42        43     0.04542        1.0080 ; qtot   -0.766
        44           h43bf         1   UNL       h43        44     0.04542        1.0080 ; qtot   -0.721
        45           h44bf         1   UNL       h44        45     0.06419        1.0080 ; qtot   -0.657
        46           h45bf         1   UNL       h45        46     0.06419        1.0080 ; qtot   -0.592
        47           h46bf         1   UNL       h46        47     0.03530        1.0080 ; qtot   -0.557
        48           h47bf         1   UNL       h47        48     0.03530        1.0080 ; qtot   -0.522
        49           h48bf         1   UNL       h48        49     0.03530        1.0080 ; qtot   -0.487
        50           c49bf         1   UNL       c49        50     0.67193       12.0110 ; qtot    0.185
        51           o50bf         1   UNL       o50        51    -0.60797       15.9990 ; qtot   -0.423
        52           n51bf         1   UNL       n51        52    -0.49029       14.0070 ; qtot   -0.913
        53           c52bf         1   UNL       c52        53     0.08466       12.0110 ; qtot   -0.828
        54           c53bf         1   UNL       c53        54     0.08466       12.0110 ; qtot   -0.744
        55           h54bf         1   UNL       h54        55     0.06150        1.0080 ; qtot   -0.682
        56           h55bf         1   UNL       h55        56     0.06150        1.0080 ; qtot   -0.621
        57           h56bf         1   UNL       h56        57     0.06422        1.0080 ; qtot   -0.556
        58           h57bf         1   UNL       h57        58     0.05208        1.0080 ; qtot   -0.504
        59           h58bf         1   UNL       h58        59     0.05208        1.0080 ; qtot   -0.452
        60           h59bf         1   UNL       h59        60     0.05522        1.0080 ; qtot   -0.397
        61           h60bf         1   UNL       h60        61     0.05522        1.0080 ; qtot   -0.342
        62           h61bf         1   UNL       h61        62     0.04383        1.0080 ; qtot   -0.298
        63           h62bf         1   UNL       h62        63     0.04383        1.0080 ; qtot   -0.254
        64           h63bf         1   UNL       h63        64     0.04383        1.0080 ; qtot   -0.210
        65           h64bf         1   UNL       h64        65     0.04383        1.0080 ; qtot   -0.166
        66           h65bf         1   UNL       h65        66     0.04383        1.0080 ; qtot   -0.123
        67           h66bf         1   UNL       h66        67     0.04383        1.0080 ; qtot   -0.079
        68           h67bf         1   UNL       h67        68     0.07879        1.0080 ; qtot   -0.000

[ bonds ]
;       ai        aj funct               r               k
         1         3     1        0.142533   332189.425684    ;  uncertainty r = 0.000117, k = 6.422742
         1         7     1        0.136655   346659.671191    ;  uncertainty r = 0.000102, k = 17.545229
         1        11     1        0.142066   369034.392627    ;  uncertainty r = 0.000081, k = 8.554175
         2        10     1        0.175234   197054.780615    ;  uncertainty r = 0.000094, k = 4.951987
         3         4     1        0.140325   377947.660986    ;  uncertainty r = 0.000055, k = 8.917596
         3         8     1        0.142215   347384.235596    ;  uncertainty r = 0.000035, k = 5.041004
         4         5     1        0.137830   358159.184766    ;  uncertainty r = 0.000129, k = 20.219617
         4        27     1        0.108720   336542.277051    ;  uncertainty r = 0.000053, k = 2.702036
         5         6     1        0.135744   293776.505762    ;  uncertainty r = 0.000170, k = 21.031074
         5        12     1        0.150034   236636.942627    ;  uncertainty r = 0.000192, k = 9.844718
         6         7     1        0.129637   364588.764941    ;  uncertainty r = 0.000265, k = 17.521411
         8         9     1        0.137662   374067.910107    ;  uncertainty r = 0.000028, k = 3.146286
         8        28     1        0.108745   333892.393359    ;  uncertainty r = 0.000025, k = 2.372018
         9        10     1        0.142244   342983.348926    ;  uncertainty r = 0.000109, k = 5.136505
         9        29     1        0.108674   335576.233740    ;  uncertainty r = 0.000015, k = 1.284620
        10        11     1        0.137352   359818.228613    ;  uncertainty r = 0.000052, k = 5.744508
        11        30     1        0.108648   337958.769434    ;  uncertainty r = 0.000027, k = 2.013042
        12        13     1        0.135564   278754.173486    ;  uncertainty r = 0.000161, k = 28.718652
        12        15     1        0.123790   683196.789746    ;  uncertainty r = 0.000050, k = 5.461478
        13        14     1        0.145742   237280.350098    ;  uncertainty r = 0.000077, k = 15.923019
        13        31     1        0.101575   410880.649219    ;  uncertainty r = 0.000067, k = 2.092477
        14        16     1        0.154163   193154.191455    ;  uncertainty r = 0.000237, k = 6.997691
        14        20     1        0.153518   200172.708447    ;  uncertainty r = 0.000086, k = 6.949998
        14        32     1        0.109368   306120.812451    ;  uncertainty r = 0.000049, k = 3.101294
        16        17     1        0.153461   198493.451978    ;  uncertainty r = 0.000128, k = 5.281574
        16        21     1        0.145732   238691.326465    ;  uncertainty r = 0.000068, k = 15.691022
        16        68     1        0.109360   306494.828955    ;  uncertainty r = 0.000054, k = 3.368977
        17        18     1        0.153721   199006.850024    ;  uncertainty r = 0.000168, k = 6.848027
        17        55     1        0.109526   310433.851465    ;  uncertainty r = 0.000043, k = 0.875064
        17        56     1        0.109526   310433.851465    ;  uncertainty r = 0.000043, k = 0.875064
        18        19     1        0.153975   202217.337109    ;  uncertainty r = 0.000087, k = 2.573046
        18        50     1        0.153156   206143.680444    ;  uncertainty r = 0.000070, k = 12.443492
        18        57     1        0.109633   309151.735352    ;  uncertainty r = 0.000051, k = 6.503762
        19        20     1        0.153317   207892.474463    ;  uncertainty r = 0.000061, k = 5.382321
        19        58     1        0.109602   308125.501074    ;  uncertainty r = 0.000021, k = 1.819146
        19        59     1        0.109602   308125.501074    ;  uncertainty r = 0.000021, k = 1.819146
        20        60     1        0.109620   309930.898096    ;  uncertainty r = 0.000025, k = 1.029525
        20        61     1        0.109620   309930.898096    ;  uncertainty r = 0.000025, k = 1.029525
        21        22     1        0.136254   291452.475586    ;  uncertainty r = 0.000129, k = 17.867731
        21        33     1        0.101616   410581.507520    ;  uncertainty r = 0.000093, k = 3.750123
        22        23     1        0.147883   259563.418848    ;  uncertainty r = 0.000125, k = 27.680344
        22        24     1        0.123538   703630.001367    ;  uncertainty r = 0.000115, k = 12.098945
        23        25     1        0.130310   434161.095312    ;  uncertainty r = 0.000085, k = 15.053236
        23        26     1        0.175563   155788.944214    ;  uncertainty r = 0.000188, k = 10.470577
        25        34     1        0.137602   299978.345996    ;  uncertainty r = 0.000211, k = 8.739575
        26        35     1        0.173396   184345.625244    ;  uncertainty r = 0.000110, k = 8.530767
        34        35     1        0.137286   397473.794482    ;  uncertainty r = 0.000034, k = 9.608965
        34        39     1        0.149948   244144.622949    ;  uncertainty r = 0.000108, k = 7.193396
        35        36     1        0.150719   237383.826465    ;  uncertainty r = 0.000089, k = 11.691948
        36        37     1        0.146397   258698.068359    ;  uncertainty r = 0.000045, k = 12.802743
        36        41     1        0.110180   303656.992139    ;  uncertainty r = 0.000048, k = 3.959665
        36        42     1        0.110180   303656.992139    ;  uncertainty r = 0.000048, k = 3.959665
        37        38     1        0.146774   246527.975830    ;  uncertainty r = 0.000088, k = 8.191406
        37        40     1        0.145874   240551.449512    ;  uncertainty r = 0.000055, k = 4.989744
        38        39     1        0.153862   211171.503149    ;  uncertainty r = 0.000061, k = 10.297044
        38        43     1        0.109933   305388.127246    ;  uncertainty r = 0.000023, k = 3.768152
        38        44     1        0.109933   305388.127246    ;  uncertainty r = 0.000023, k = 3.768152
        39        45     1        0.109729   310887.467139    ;  uncertainty r = 0.000009, k = 2.383701
        39        46     1        0.109729   310887.467139    ;  uncertainty r = 0.000009, k = 2.383701
        40        47     1        0.109858   306972.960254    ;  uncertainty r = 0.000009, k = 1.032628
        40        48     1        0.109858   306972.960254    ;  uncertainty r = 0.000009, k = 1.032628
        40        49     1        0.109858   306972.960254    ;  uncertainty r = 0.000009, k = 1.032628
        50        51     1        0.123614   736987.492969    ;  uncertainty r = 0.000035, k = 11.451192
        50        52     1        0.137582   365085.461719    ;  uncertainty r = 0.000056, k = 20.353979
        52        53     1        0.145904   250764.582275    ;  uncertainty r = 0.000013, k = 6.211512
        52        54     1        0.145904   250764.582275    ;  uncertainty r = 0.000013, k = 6.211512
        53        62     1        0.109437   311080.731982    ;  uncertainty r = 0.000014, k = 1.257584
        53        63     1        0.109437   311080.731982    ;  uncertainty r = 0.000014, k = 1.257584
        53        64     1        0.109437   311080.731982    ;  uncertainty r = 0.000014, k = 1.257584
        54        65     1        0.109437   311080.731982    ;  uncertainty r = 0.000014, k = 1.257584
        54        66     1        0.109437   311080.731982    ;  uncertainty r = 0.000014, k = 1.257584
        54        67     1        0.109437   311080.731982    ;  uncertainty r = 0.000014, k = 1.257584

[ angles ]
;       ai        aj        ak funct           theta             cth
         1         3         4     1      113.956055      436.306685    ;  uncertainty theta = 0.003838, k = 0.169584
         1         3         8     1      117.582352      440.873933    ;  uncertainty theta = 0.003514, k = 0.081369
         1         7         6     1      117.138206      653.424338    ;  uncertainty theta = 0.006905, k = 0.144093
         1        11        10     1      117.914963      496.666707    ;  uncertainty theta = 0.002652, k = 0.126621
         1        11        30     1      121.579445      265.869958    ;  uncertainty theta = 0.001383, k = 0.262432
         2        10         9     1      119.589737      451.021359    ;  uncertainty theta = 0.001761, k = 0.061808
         2        10        11     1      120.630783      441.629895    ;  uncertainty theta = 0.001610, k = 0.049541
         3         1         7     1      121.800636      525.901111    ;  uncertainty theta = 0.002051, k = 0.194311
         3         1        11     1      118.610123      417.949462    ;  uncertainty theta = 0.003708, k = 0.059700
         3         4         5     1      116.444519      515.068844    ;  uncertainty theta = 0.005514, k = 0.162147
         3         4        27     1      122.604187      270.186097    ;  uncertainty theta = 0.004470, k = 0.102932
         3         8         9     1      120.421921      540.865506    ;  uncertainty theta = 0.003630, k = 0.102097
         3         8        28     1      119.604294      280.052072    ;  uncertainty theta = 0.001603, k = 0.070840
         4         3         8     1      125.444359      456.005437    ;  uncertainty theta = 0.003485, k = 0.131332
         4         5         6     1      124.260094      538.548652    ;  uncertainty theta = 0.003158, k = 0.088567
         4         5        12     1      119.270164      352.300480    ;  uncertainty theta = 0.005402, k = 0.222736
         5         4        27     1      121.887161      260.018816    ;  uncertainty theta = 0.003810, k = 0.127485
         5         6         7     1      120.498070      644.410185    ;  uncertainty theta = 0.003308, k = 0.221869
         5        12        13     1      113.368729      430.714186    ;  uncertainty theta = 0.003920, k = 0.121702
         5        12        15     1      120.933289      510.182989    ;  uncertainty theta = 0.006459, k = 0.121128
         6         5        12     1      114.506042      398.828008    ;  uncertainty theta = 0.006598, k = 0.291197
         7         1        11     1      119.115440      485.096865    ;  uncertainty theta = 0.004564, k = 0.227975
         8         9        10     1      119.988586      521.909470    ;  uncertainty theta = 0.001694, k = 0.099564
         8         9        29     1      120.234718      283.646228    ;  uncertainty theta = 0.000421, k = 0.101292
         9         8        28     1      120.237228      284.706242    ;  uncertainty theta = 0.001408, k = 0.048687
         9        10        11     1      122.177307      403.565461    ;  uncertainty theta = 0.002588, k = 0.076273
        10         9        29     1      120.695763      288.647384    ;  uncertainty theta = 0.001774, k = 0.037911
        10        11        30     1      122.786293      281.247847    ;  uncertainty theta = 0.001080, k = 0.114732
        12        13        14     1      115.943016      447.435246    ;  uncertainty theta = 0.005207, k = 0.207796
        12        13        31     1      116.283646      352.331157    ;  uncertainty theta = 0.005258, k = 0.070645
        13        12        15     1      124.663437      802.032183    ;  uncertainty theta = 0.003287, k = 0.104402
        13        14        16     1      109.055870      583.797920    ;  uncertainty theta = 0.004556, k = 0.173200
        13        14        20     1      110.641380      632.944215    ;  uncertainty theta = 0.002144, k = 0.077757
        13        14        32     1      105.233902      447.095699    ;  uncertainty theta = 0.004244, k = 0.145421
        14        13        31     1      112.650589      313.444204    ;  uncertainty theta = 0.001352, k = 0.269208
        14        16        17     1      109.656967      543.291404    ;  uncertainty theta = 0.003196, k = 0.182204
        14        16        21     1      109.146683      584.442413    ;  uncertainty theta = 0.004622, k = 0.173858
        14        16        68     1      107.717239      383.850653    ;  uncertainty theta = 0.001765, k = 0.083403
        14        20        19     1      109.780396      550.449520    ;  uncertainty theta = 0.003491, k = 0.116853
        14        20        60     1      107.481422      382.863197    ;  uncertainty theta = 0.000870, k = 0.034003
        14        20        61     1      107.481422      382.863197    ;  uncertainty theta = 0.000870, k = 0.034003
        16        14        20     1      109.386574      551.865233    ;  uncertainty theta = 0.000986, k = 0.237382
        16        14        32     1      107.472862      382.095998    ;  uncertainty theta = 0.002525, k = 0.088543
        16        17        18     1      110.158470      537.237002    ;  uncertainty theta = 0.003364, k = 0.118913
        16        17        55     1      107.462036      385.087415    ;  uncertainty theta = 0.000668, k = 0.059043
        16        17        56     1      107.462036      385.087415    ;  uncertainty theta = 0.000668, k = 0.059043
        16        21        22     1      116.259842      438.599854    ;  uncertainty theta = 0.006695, k = 0.183209
        16        21        33     1      112.698265      315.764027    ;  uncertainty theta = 0.001508, k = 0.296876
        17        16        21     1      110.222816      630.153200    ;  uncertainty theta = 0.002135, k = 0.087453
        17        16        68     1      108.603882      408.571724    ;  uncertainty theta = 0.001775, k = 0.034676
        17        18        19     1      109.900391      583.567575    ;  uncertainty theta = 0.002330, k = 0.083135
        17        18        50     1      108.569168      489.144113    ;  uncertainty theta = 0.003757, k = 0.073146
        17        18        57     1      107.332260      401.082169    ;  uncertainty theta = 0.002516, k = 0.077903
        18        17        55     1      108.676857      396.198101    ;  uncertainty theta = 0.000795, k = 0.026396
        18        17        56     1      108.676857      396.198101    ;  uncertainty theta = 0.000795, k = 0.026396
        18        19        20     1      109.789757      580.826741    ;  uncertainty theta = 0.001891, k = 0.142184
        18        19        58     1      108.292625      386.614311    ;  uncertainty theta = 0.000735, k = 0.019139
        18        19        59     1      108.292625      386.614311    ;  uncertainty theta = 0.000735, k = 0.019139
        18        50        51     1      123.648819      547.647652    ;  uncertainty theta = 0.003749, k = 0.250532
        18        50        52     1      114.135170      399.306701    ;  uncertainty theta = 0.002339, k = 0.216014
        19        18        50     1      108.943726      496.415422    ;  uncertainty theta = 0.001979, k = 0.055108
        19        18        57     1      107.694107      403.879791    ;  uncertainty theta = 0.001685, k = 0.082263
        19        20        60     1      108.762428      400.566224    ;  uncertainty theta = 0.001510, k = 0.036687
        19        20        61     1      108.762428      400.566224    ;  uncertainty theta = 0.001510, k = 0.036687
        20        14        32     1      108.912514      410.850975    ;  uncertainty theta = 0.001579, k = 0.068352
        20        19        58     1      108.482193      402.788750    ;  uncertainty theta = 0.000884, k = 0.036541
        20        19        59     1      108.482193      402.788750    ;  uncertainty theta = 0.000884, k = 0.036541
        21        16        68     1      105.245773      446.491842    ;  uncertainty theta = 0.004278, k = 0.178016
        21        22        23     1      113.070839      435.784547    ;  uncertainty theta = 0.006920, k = 0.140238
        21        22        24     1      124.950012      804.911939    ;  uncertainty theta = 0.003994, k = 0.055585
        22        21        33     1      116.250000      347.593576    ;  uncertainty theta = 0.004441, k = 0.081627
        22        23        25     1      122.197128      370.860213    ;  uncertainty theta = 0.005964, k = 0.255742
        22        23        26     1      118.123451      287.405674    ;  uncertainty theta = 0.005808, k = 0.204925
        23        22        24     1      120.002197      453.227350    ;  uncertainty theta = 0.007890, k = 0.121396
        23        25        34     1      111.845421      637.059456    ;  uncertainty theta = 0.004719, k = 0.108197
        23        26        35     1       89.170425     1132.634133    ;  uncertainty theta = 0.004755, k = 0.314956
        25        23        26     1      116.136452      646.965173    ;  uncertainty theta = 0.002239, k = 0.246117
        25        34        35     1      115.716957      690.992937    ;  uncertainty theta = 0.003156, k = 0.158093
        25        34        39     1      124.040390      433.932787    ;  uncertainty theta = 0.004363, k = 0.201750
        26        35        34     1      109.672325      507.238336    ;  uncertainty theta = 0.002750, k = 0.124654
        26        35        36     1      124.458923      318.004972    ;  uncertainty theta = 0.003631, k = 0.249957
        34        35        36     1      122.449425      322.713122    ;  uncertainty theta = 0.004108, k = 0.373686
        34        39        38     1      106.939438      596.797522    ;  uncertainty theta = 0.003584, k = 0.044131
        34        39        45     1      108.548073      392.911220    ;  uncertainty theta = 0.001454, k = 0.086868
        34        39        46     1      108.548073      392.911220    ;  uncertainty theta = 0.001454, k = 0.086868
        35        34        39     1      120.498146      325.489963    ;  uncertainty theta = 0.004995, k = 0.174544
        35        36        37     1      109.701111      686.046080    ;  uncertainty theta = 0.001850, k = 0.201796
        35        36        41     1      108.925659      409.463193    ;  uncertainty theta = 0.001395, k = 0.154098
        35        36        42     1      108.925659      409.463193    ;  uncertainty theta = 0.001395, k = 0.154098
        36        37        38     1      108.084244      491.834927    ;  uncertainty theta = 0.003315, k = 0.091086
        36        37        40     1      107.580322      510.743273    ;  uncertainty theta = 0.002764, k = 0.057722
        37        36        41     1      109.358154      448.409487    ;  uncertainty theta = 0.001850, k = 0.074310
        37        36        42     1      109.358154      448.409487    ;  uncertainty theta = 0.001850, k = 0.074310
        37        38        39     1      112.487526      700.788206    ;  uncertainty theta = 0.002677, k = 0.118016
        37        38        43     1      108.920166      453.721493    ;  uncertainty theta = 0.001526, k = 0.064884
        37        38        44     1      108.920166      453.721493    ;  uncertainty theta = 0.001526, k = 0.064884
        37        40        47     1      110.438461      450.024231    ;  uncertainty theta = 0.001821, k = 0.029766
        37        40        48     1      110.438461      450.024231    ;  uncertainty theta = 0.001821, k = 0.029766
        37        40        49     1      110.438461      450.024231    ;  uncertainty theta = 0.001821, k = 0.029766
        38        37        40     1      108.245483      523.945384    ;  uncertainty theta = 0.002945, k = 0.105030
        38        39        45     1      108.704140      394.566535    ;  uncertainty theta = 0.001154, k = 0.056791
        38        39        46     1      108.704140      394.566535    ;  uncertainty theta = 0.001154, k = 0.056791
        39        38        43     1      108.660522      413.983038    ;  uncertainty theta = 0.001451, k = 0.079858
        39        38        44     1      108.660522      413.983038    ;  uncertainty theta = 0.001451, k = 0.079858
        41        36        42     1      104.710770      316.430897    ;  uncertainty theta = 0.002647, k = 0.058044
        43        38        44     1      105.686386      320.062785    ;  uncertainty theta = 0.001993, k = 0.069558
        45        39        46     1      105.018166      307.701164    ;  uncertainty theta = 0.001306, k = 0.028790
        47        40        48     1      106.707680      321.292396    ;  uncertainty theta = 0.002211, k = 0.028957
        47        40        49     1      106.707680      321.292396    ;  uncertainty theta = 0.002211, k = 0.028957
        48        40        49     1      106.707680      321.292396    ;  uncertainty theta = 0.002211, k = 0.028957
        50        18        57     1      106.313622      362.200292    ;  uncertainty theta = 0.002423, k = 0.146630
        50        52        53     1      116.622971      385.561065    ;  uncertainty theta = 0.001770, k = 0.124804
        50        52        54     1      116.622971      385.561065    ;  uncertainty theta = 0.001770, k = 0.124804
        51        50        52     1      123.396584      724.695474    ;  uncertainty theta = 0.001503, k = 0.174408
        52        53        62     1      109.352982      479.364486    ;  uncertainty theta = 0.001224, k = 0.042687
        52        53        63     1      109.352982      479.364486    ;  uncertainty theta = 0.001224, k = 0.042687
        52        53        64     1      109.352982      479.364486    ;  uncertainty theta = 0.001224, k = 0.042687
        52        54        65     1      109.352982      479.364486    ;  uncertainty theta = 0.001224, k = 0.042687
        52        54        66     1      109.352982      479.364486    ;  uncertainty theta = 0.001224, k = 0.042687
        52        54        67     1      109.352982      479.364486    ;  uncertainty theta = 0.001224, k = 0.042687
        53        52        54     1      118.428368      428.731644    ;  uncertainty theta = 0.003391, k = 0.223109
        55        17        56     1      105.326035      326.596294    ;  uncertainty theta = 0.002223, k = 0.051835
        58        19        59     1      104.655197      318.642921    ;  uncertainty theta = 0.002537, k = 0.034949
        60        20        61     1      105.087135      316.700154    ;  uncertainty theta = 0.002326, k = 0.045638
        62        53        63     1      106.824196      329.099123    ;  uncertainty theta = 0.001131, k = 0.027019
        62        53        64     1      106.824196      329.099123    ;  uncertainty theta = 0.001131, k = 0.027019
        63        53        64     1      106.824196      329.099123    ;  uncertainty theta = 0.001131, k = 0.027019
        65        54        66     1      106.824196      329.099123    ;  uncertainty theta = 0.001131, k = 0.027019
        65        54        67     1      106.824196      329.099123    ;  uncertainty theta = 0.001131, k = 0.027019
        66        54        67     1      106.824196      329.099123    ;  uncertainty theta = 0.001131, k = 0.027019

[ dihedrals ] ; propers for gromacs 4.5 or higher, use funct 9
;       ai        aj        ak        al funct           phase               k        pn
         1         3         4         5     9        0.000000       -0.029899         1    ;  uncertainty k = 0.605279
         1         3         4         5     9      180.000000       10.334292         2    ;  uncertainty k = 0.826987
         1         3         4         5     9        0.000000       -0.536344         3    ;  uncertainty k = 0.382661
         1         3         4         5     9      180.000000        1.123142         4    ;  uncertainty k = 0.149070
         1         3         4        27     9        0.000000       -0.169916         1    ;  uncertainty k = 1.091139
         1         3         4        27     9      180.000000        6.954813         2    ;  uncertainty k = 0.561739
         1         3         4        27     9        0.000000        1.062676         3    ;  uncertainty k = 0.150852
         1         3         4        27     9      180.000000        1.311526         4    ;  uncertainty k = 0.165014
         1         3         8         9     9        0.000000        0.209292         1    ;  uncertainty k = 0.326762
         1         3         8         9     9      180.000000       10.318196         2    ;  uncertainty k = 0.467406
         1         3         8         9     9        0.000000       -0.561838         3    ;  uncertainty k = 0.318257
         1         3         8         9     9      180.000000        1.126290         4    ;  uncertainty k = 0.231380
         1         3         8        28     9        0.000000       -0.458322         1    ;  uncertainty k = 0.960380
         1         3         8        28     9      180.000000        6.605870         2    ;  uncertainty k = 0.618744
         1         3         8        28     9        0.000000        1.137473         3    ;  uncertainty k = 0.046593
         1         3         8        28     9      180.000000        1.166666         4    ;  uncertainty k = 0.136010
         1         7         6         5     9        0.000000       -2.783718         1    ;  uncertainty k = 4.779128
         1         7         6         5     9      180.000000       31.083217         2    ;  uncertainty k = 0.944169
         1         7         6         5     9        0.000000        1.389817         3    ;  uncertainty k = 0.955743
         1         7         6         5     9      180.000000       -0.118202         4    ;  uncertainty k = 1.841668
         1        11        10         2     9        0.000000       -0.000911         1    ;  uncertainty k = 0.247781
         1        11        10         2     9      180.000000       12.445068         2    ;  uncertainty k = 0.551528
         1        11        10         2     9        0.000000        1.658139         3    ;  uncertainty k = 0.237216
         1        11        10         2     9      180.000000        1.545029         4    ;  uncertainty k = 0.275398
         1        11        10         9     9        0.000000       -0.166707         1    ;  uncertainty k = 0.345673
         1        11        10         9     9      180.000000       11.781569         2    ;  uncertainty k = 0.363658
         1        11        10         9     9        0.000000        0.297885         3    ;  uncertainty k = 0.393713
         1        11        10         9     9      180.000000        1.197922         4    ;  uncertainty k = 0.375244
         2        10         9         8     9        0.000000        0.153392         1    ;  uncertainty k = 0.115222
         2        10         9         8     9      180.000000        7.865209         2    ;  uncertainty k = 0.671706
         2        10         9         8     9        0.000000        1.416714         3    ;  uncertainty k = 0.514790
         2        10         9         8     9      180.000000        1.538026         4    ;  uncertainty k = 0.249091
         2        10         9        29     9        0.000000        0.023726         1    ;  uncertainty k = 0.269873
         2        10         9        29     9      180.000000        6.774926         2    ;  uncertainty k = 0.159694
         2        10         9        29     9        0.000000        0.699695         3    ;  uncertainty k = 0.295227
         2        10         9        29     9      180.000000        0.923426         4    ;  uncertainty k = 0.141508
         2        10        11        30     9        0.000000       -0.334191         1    ;  uncertainty k = 0.426556
         2        10        11        30     9      180.000000        8.885823         2    ;  uncertainty k = 0.429140
         2        10        11        30     9        0.000000        0.886404         3    ;  uncertainty k = 0.259276
         2        10        11        30     9      180.000000        1.116384         4    ;  uncertainty k = 0.258971
         3         1         7         6     9        0.000000        1.375483         1    ;  uncertainty k = 1.646738
         3         1         7         6     9      180.000000       12.953701         2    ;  uncertainty k = 0.439051
         3         1         7         6     9        0.000000        2.023809         3    ;  uncertainty k = 0.555166
         3         1         7         6     9      180.000000        1.090461         4    ;  uncertainty k = 0.418911
         3         1        11        10     9        0.000000        0.343222         1    ;  uncertainty k = 0.364737
         3         1        11        10     9      180.000000        8.831157         2    ;  uncertainty k = 0.693842
         3         1        11        10     9        0.000000       -0.270033         3    ;  uncertainty k = 0.247055
         3         1        11        10     9      180.000000        1.151075         4    ;  uncertainty k = 0.198044
         3         1        11        30     9        0.000000       -0.341359         1    ;  uncertainty k = 0.605210
         3         1        11        30     9      180.000000        5.037613         2    ;  uncertainty k = 0.183737
         3         1        11        30     9        0.000000        1.212357         3    ;  uncertainty k = 0.224882
         3         1        11        30     9      180.000000        1.082295         4    ;  uncertainty k = 0.221245
         3         4         5         6     9        0.000000       -0.447370         1    ;  uncertainty k = 0.397706
         3         4         5         6     9      180.000000       11.359442         2    ;  uncertainty k = 0.703954
         3         4         5         6     9        0.000000       -0.165324         3    ;  uncertainty k = 0.330612
         3         4         5         6     9      180.000000        1.186010         4    ;  uncertainty k = 0.205985
         3         4         5        12     9        0.000000        0.387007         1    ;  uncertainty k = 0.571141
         3         4         5        12     9      180.000000        9.251235         2    ;  uncertainty k = 0.443513
         3         4         5        12     9        0.000000        1.395512         3    ;  uncertainty k = 0.231793
         3         4         5        12     9      180.000000        1.688782         4    ;  uncertainty k = 0.263048
         3         8         9        10     9        0.000000       -0.061843         1    ;  uncertainty k = 0.356377
         3         8         9        10     9      180.000000       16.345062         2    ;  uncertainty k = 0.264331
         3         8         9        10     9        0.000000       -0.322204         3    ;  uncertainty k = 0.547053
         3         8         9        10     9      180.000000        0.901557         4    ;  uncertainty k = 0.304478
         3         8         9        29     9        0.000000        0.121028         1    ;  uncertainty k = 0.195017
         3         8         9        29     9      180.000000       10.656737         2    ;  uncertainty k = 0.289203
         3         8         9        29     9        0.000000        1.664492         3    ;  uncertainty k = 0.286778
         3         8         9        29     9      180.000000        1.856639         4    ;  uncertainty k = 0.259406
         4         3         1         7     9        0.000000        0.124633         1    ;  uncertainty k = 0.720976
         4         3         1         7     9      180.000000        6.648671         2    ;  uncertainty k = 0.762686
         4         3         1         7     9        0.000000        0.037239         3    ;  uncertainty k = 0.333140
         4         3         1         7     9      180.000000        1.331269         4    ;  uncertainty k = 0.274329
         4         3         1        11     9        0.000000        0.019013         1    ;  uncertainty k = 0.554563
         4         3         1        11     9      180.000000        6.218439         2    ;  uncertainty k = 0.447768
         4         3         1        11     9        0.000000        0.115625         3    ;  uncertainty k = 0.311880
         4         3         1        11     9      180.000000        1.384516         4    ;  uncertainty k = 0.247324
         4         3         8         9     9        0.000000       -0.038514         1    ;  uncertainty k = 0.499383
         4         3         8         9     9      180.000000        8.870716         2    ;  uncertainty k = 0.260710
         4         3         8         9     9        0.000000        0.402329         3    ;  uncertainty k = 0.446967
         4         3         8         9     9      180.000000        1.348350         4    ;  uncertainty k = 0.078192
         4         3         8        28     9        0.000000       -0.292367         1    ;  uncertainty k = 0.496917
         4         3         8        28     9      180.000000        6.098990         2    ;  uncertainty k = 0.459125
         4         3         8        28     9        0.000000        1.081771         3    ;  uncertainty k = 0.136501
         4         3         8        28     9      180.000000        1.076782         4    ;  uncertainty k = 0.129536
         4         5         6         7     9        0.000000        1.165660         1    ;  uncertainty k = 1.386393
         4         5         6         7     9      180.000000       11.982696         2    ;  uncertainty k = 0.414260
         4         5         6         7     9        0.000000        2.138961         3    ;  uncertainty k = 0.221909
         4         5         6         7     9      180.000000        1.298189         4    ;  uncertainty k = 0.414667
         4         5        12        13     9        0.000000       -0.379474         1    ;  uncertainty k = 0.859929
         4         5        12        13     9      180.000000        2.935195         2    ;  uncertainty k = 0.341858
         4         5        12        13     9        0.000000        0.754511         3    ;  uncertainty k = 0.294324
         4         5        12        13     9      180.000000       -0.163371         4    ;  uncertainty k = 0.113780
         4         5        12        15     9        0.000000       -1.384013         1    ;  uncertainty k = 0.624275
         4         5        12        15     9      180.000000        3.463937         2    ;  uncertainty k = 0.451293
         4         5        12        15     9        0.000000        0.310656         3    ;  uncertainty k = 0.373049
         4         5        12        15     9      180.000000        0.031135         4    ;  uncertainty k = 0.077308
         5         4         3         8     9        0.000000        0.069082         1    ;  uncertainty k = 0.367302
         5         4         3         8     9      180.000000        9.408498         2    ;  uncertainty k = 0.418565
         5         4         3         8     9        0.000000        0.128512         3    ;  uncertainty k = 0.259188
         5         4         3         8     9      180.000000        1.252291         4    ;  uncertainty k = 0.147114
         5        12        13        14     9        0.000000        2.669176         1    ;  uncertainty k = 1.269356
         5        12        13        14     9      180.000000       13.491306         2    ;  uncertainty k = 0.318029
         5        12        13        14     9        0.000000        1.641020         3    ;  uncertainty k = 0.125722
         5        12        13        14     9      180.000000       -1.622259         4    ;  uncertainty k = 0.513323
         5        12        13        31     9        0.000000       -2.196110         1    ;  uncertainty k = 0.490970
         5        12        13        31     9      180.000000        7.658072         2    ;  uncertainty k = 0.829868
         5        12        13        31     9        0.000000        2.275414         3    ;  uncertainty k = 0.212303
         5        12        13        31     9      180.000000        0.082093         4    ;  uncertainty k = 0.415032
         6         5         4        27     9        0.000000       -0.100737         1    ;  uncertainty k = 0.517015
         6         5         4        27     9      180.000000        7.756405         2    ;  uncertainty k = 0.828325
         6         5         4        27     9        0.000000        0.946503         3    ;  uncertainty k = 0.159640
         6         5         4        27     9      180.000000        1.465987         4    ;  uncertainty k = 0.167834
         6         5        12        13     9        0.000000        0.991513         1    ;  uncertainty k = 1.147117
         6         5        12        13     9      180.000000        3.370588         2    ;  uncertainty k = 0.582707
         6         5        12        13     9        0.000000       -0.174033         3    ;  uncertainty k = 0.371670
         6         5        12        13     9      180.000000        0.053012         4    ;  uncertainty k = 0.094857
         6         5        12        15     9        0.000000       -2.596630         1    ;  uncertainty k = 1.365662
         6         5        12        15     9      180.000000        3.179219         2    ;  uncertainty k = 0.559910
         6         5        12        15     9        0.000000        0.805581         3    ;  uncertainty k = 0.231411
         6         5        12        15     9      180.000000        0.003818         4    ;  uncertainty k = 0.087943
         6         7         1        11     9        0.000000        1.747751         1    ;  uncertainty k = 2.739385
         6         7         1        11     9      180.000000       12.762116         2    ;  uncertainty k = 0.329566
         6         7         1        11     9        0.000000        2.328647         3    ;  uncertainty k = 0.373906
         6         7         1        11     9      180.000000        1.206275         4    ;  uncertainty k = 0.423748
         7         1         3         8     9        0.000000        0.116811         1    ;  uncertainty k = 0.420053
         7         1         3         8     9      180.000000        6.463420         2    ;  uncertainty k = 0.905983
         7         1         3         8     9        0.000000        0.161077         3    ;  uncertainty k = 0.449294
         7         1         3         8     9      180.000000        1.397681         4    ;  uncertainty k = 0.161153
         7         1        11        10     9        0.000000        0.331063         1    ;  uncertainty k = 0.506099
         7         1        11        10     9      180.000000        8.439965         2    ;  uncertainty k = 0.247373
         7         1        11        10     9        0.000000        0.647661         3    ;  uncertainty k = 0.489786
         7         1        11        10     9      180.000000        1.441336         4    ;  uncertainty k = 0.190427
         7         1        11        30     9        0.000000        0.081879         1    ;  uncertainty k = 0.230836
         7         1        11        30     9      180.000000        6.791952         2    ;  uncertainty k = 0.512926
         7         1        11        30     9        0.000000        1.011644         3    ;  uncertainty k = 0.345247
         7         1        11        30     9      180.000000        1.135061         4    ;  uncertainty k = 0.360405
         7         6         5        12     9        0.000000        1.511865         1    ;  uncertainty k = 1.802304
         7         6         5        12     9      180.000000       12.674653         2    ;  uncertainty k = 0.826180
         7         6         5        12     9        0.000000        2.545574         3    ;  uncertainty k = 0.529192
         7         6         5        12     9      180.000000        1.368019         4    ;  uncertainty k = 0.353239
         8         3         1        11     9        0.000000        0.021103         1    ;  uncertainty k = 0.493744
         8         3         1        11     9      180.000000        6.105305         2    ;  uncertainty k = 0.696214
         8         3         1        11     9        0.000000        0.045117         3    ;  uncertainty k = 0.275242
         8         3         1        11     9      180.000000        1.418679         4    ;  uncertainty k = 0.250188
         8         3         4        27     9        0.000000       -0.148331         1    ;  uncertainty k = 0.415332
         8         3         4        27     9      180.000000        6.417193         2    ;  uncertainty k = 0.275660
         8         3         4        27     9        0.000000        1.110940         3    ;  uncertainty k = 0.301915
         8         3         4        27     9      180.000000        1.254866         4    ;  uncertainty k = 0.163738
         8         9        10        11     9        0.000000        0.021771         1    ;  uncertainty k = 0.366511
         8         9        10        11     9      180.000000        7.178883         2    ;  uncertainty k = 0.573148
         8         9        10        11     9        0.000000        0.133552         3    ;  uncertainty k = 0.458939
         8         9        10        11     9      180.000000        1.183355         4    ;  uncertainty k = 0.255291
         9        10        11        30     9        0.000000        0.143468         1    ;  uncertainty k = 0.268882
         9        10        11        30     9      180.000000        7.574612         2    ;  uncertainty k = 0.425339
         9        10        11        30     9        0.000000        1.581964         3    ;  uncertainty k = 0.396015
         9        10        11        30     9      180.000000        1.750995         4    ;  uncertainty k = 0.098597
        10         9         8        28     9        0.000000        0.035297         1    ;  uncertainty k = 0.144067
        10         9         8        28     9      180.000000        9.511959         2    ;  uncertainty k = 0.439009
        10         9         8        28     9        0.000000        1.516536         3    ;  uncertainty k = 0.275938
        10         9         8        28     9      180.000000        2.030065         4    ;  uncertainty k = 0.371646
        11        10         9        29     9        0.000000       -0.208115         1    ;  uncertainty k = 0.230011
        11        10         9        29     9      180.000000        5.225298         2    ;  uncertainty k = 0.683183
        11        10         9        29     9        0.000000        1.158674         3    ;  uncertainty k = 0.210702
        11        10         9        29     9      180.000000        1.294312         4    ;  uncertainty k = 0.090883
        12         5         4        27     9        0.000000       -0.135337         1    ;  uncertainty k = 0.841042
        12         5         4        27     9      180.000000        7.493321         2    ;  uncertainty k = 0.538739
        12         5         4        27     9        0.000000        0.909042         3    ;  uncertainty k = 0.248982
        12         5         4        27     9      180.000000        1.095927         4    ;  uncertainty k = 0.195280
        12        13        14        16     9        0.000000        1.033343         1    ;  uncertainty k = 0.318652
        12        13        14        16     9      180.000000        0.131969         2    ;  uncertainty k = 0.310188
        12        13        14        16     9        0.000000       -0.116753         3    ;  uncertainty k = 0.154737
        12        13        14        16     9      180.000000        0.495333         4    ;  uncertainty k = 0.320266
        12        13        14        20     9        0.000000        0.461129         1    ;  uncertainty k = 0.236938
        12        13        14        20     9      180.000000        0.195864         2    ;  uncertainty k = 0.314712
        12        13        14        20     9        0.000000        0.131042         3    ;  uncertainty k = 0.103830
        12        13        14        20     9      180.000000        0.370651         4    ;  uncertainty k = 0.151194
        12        13        14        32     9        0.000000        1.149436         1    ;  uncertainty k = 0.335248
        12        13        14        32     9      180.000000       -0.401093         2    ;  uncertainty k = 0.289177
        12        13        14        32     9        0.000000        0.107061         3    ;  uncertainty k = 0.163896
        12        13        14        32     9      180.000000        0.184328         4    ;  uncertainty k = 0.068773
        13        14        16        17     9        0.000000       -2.815451         1    ;  uncertainty k = 0.878906
        13        14        16        17     9      180.000000       -0.243937         2    ;  uncertainty k = 0.339341
        13        14        16        17     9        0.000000        0.567855         3    ;  uncertainty k = 0.180278
        13        14        16        17     9      180.000000       -0.039909         4    ;  uncertainty k = 0.138586
        13        14        16        21     9        0.000000        0.277053         1    ;  uncertainty k = 1.016701
        13        14        16        21     9      180.000000       -1.189577         2    ;  uncertainty k = 0.749128
        13        14        16        21     9        0.000000        0.385556         3    ;  uncertainty k = 0.377482
        13        14        16        21     9      180.000000       -0.048779         4    ;  uncertainty k = 0.385715
        13        14        16        68     9        0.000000        0.035744         1    ;  uncertainty k = 1.085326
        13        14        16        68     9      180.000000       -1.401474         2    ;  uncertainty k = 0.450800
        13        14        16        68     9        0.000000        0.504935         3    ;  uncertainty k = 0.242435
        13        14        16        68     9      180.000000       -0.268297         4    ;  uncertainty k = 0.121052
        13        14        20        19     9        0.000000       -4.251120         1    ;  uncertainty k = 0.791934
        13        14        20        19     9      180.000000        0.327683         2    ;  uncertainty k = 0.228606
        13        14        20        19     9        0.000000        0.874649         3    ;  uncertainty k = 0.106576
        13        14        20        19     9      180.000000       -0.152513         4    ;  uncertainty k = 0.106637
        13        14        20        60     9        0.000000       -0.364444         1    ;  uncertainty k = 0.627794
        13        14        20        60     9      180.000000       -1.369508         2    ;  uncertainty k = 0.352472
        13        14        20        60     9        0.000000        0.941271         3    ;  uncertainty k = 0.114890
        13        14        20        60     9      180.000000       -0.288451         4    ;  uncertainty k = 0.078333
        13        14        20        61     9        0.000000       -0.364444         1    ;  uncertainty k = 0.627794
        13        14        20        61     9      180.000000       -1.369508         2    ;  uncertainty k = 0.352472
        13        14        20        61     9        0.000000        0.941271         3    ;  uncertainty k = 0.114890
        13        14        20        61     9      180.000000       -0.288451         4    ;  uncertainty k = 0.078333
        14        13        12        15     9        0.000000        4.612795         1    ;  uncertainty k = 1.120745
        14        13        12        15     9      180.000000       15.248402         2    ;  uncertainty k = 0.185366
        14        13        12        15     9        0.000000        0.289717         3    ;  uncertainty k = 0.129692
        14        13        12        15     9      180.000000       -0.643206         4    ;  uncertainty k = 0.208910
        14        16        17        18     9        0.000000       -1.422268         1    ;  uncertainty k = 2.687840
        14        16        17        18     9      180.000000       -1.372244         2    ;  uncertainty k = 1.266315
        14        16        17        18     9        0.000000        0.520722         3    ;  uncertainty k = 0.498083
        14        16        17        18     9      180.000000       -1.215413         4    ;  uncertainty k = 0.210469
        14        16        17        55     9        0.000000       -0.883136         1    ;  uncertainty k = 0.508196
        14        16        17        55     9      180.000000       -0.614929         2    ;  uncertainty k = 0.175084
        14        16        17        55     9        0.000000        0.124594         3    ;  uncertainty k = 0.064034
        14        16        17        55     9      180.000000       -0.135751         4    ;  uncertainty k = 0.114004
        14        16        17        56     9        0.000000       -0.883136         1    ;  uncertainty k = 0.508196
        14        16        17        56     9      180.000000       -0.614929         2    ;  uncertainty k = 0.175084
        14        16        17        56     9        0.000000        0.124594         3    ;  uncertainty k = 0.064034
        14        16        17        56     9      180.000000       -0.135751         4    ;  uncertainty k = 0.114004
        14        16        21        22     9        0.000000        0.794846         1    ;  uncertainty k = 0.604396
        14        16        21        22     9      180.000000        0.224272         2    ;  uncertainty k = 0.185685
        14        16        21        22     9        0.000000       -0.089245         3    ;  uncertainty k = 0.110265
        14        16        21        22     9      180.000000        0.458816         4    ;  uncertainty k = 0.210243
        14        16        21        33     9        0.000000        2.683155         1    ;  uncertainty k = 0.609086
        14        16        21        33     9      180.000000       -1.562794         2    ;  uncertainty k = 0.401578
        14        16        21        33     9        0.000000        0.519888         3    ;  uncertainty k = 0.250676
        14        16        21        33     9      180.000000        0.165823         4    ;  uncertainty k = 0.146369
        14        20        19        18     9        0.000000       -5.573238         1    ;  uncertainty k = 0.727025
        14        20        19        18     9      180.000000       -1.078323         2    ;  uncertainty k = 0.651288
        14        20        19        18     9        0.000000        1.425236         3    ;  uncertainty k = 0.144828
        14        20        19        18     9      180.000000       -1.198239         4    ;  uncertainty k = 0.215276
        14        20        19        58     9        0.000000       -1.161760         1    ;  uncertainty k = 0.416585
        14        20        19        58     9      180.000000       -0.677761         2    ;  uncertainty k = 0.277437
        14        20        19        58     9        0.000000        0.404336         3    ;  uncertainty k = 0.184873
        14        20        19        58     9      180.000000       -0.085548         4    ;  uncertainty k = 0.032870
        14        20        19        59     9        0.000000       -1.161760         1    ;  uncertainty k = 0.416585
        14        20        19        59     9      180.000000       -0.677761         2    ;  uncertainty k = 0.277437
        14        20        19        59     9        0.000000        0.404336         3    ;  uncertainty k = 0.184873
        14        20        19        59     9      180.000000       -0.085548         4    ;  uncertainty k = 0.032870
        15        12        13        31     9        0.000000        2.689765         1    ;  uncertainty k = 1.002022
        15        12        13        31     9      180.000000       16.384647         2    ;  uncertainty k = 0.401100
        15        12        13        31     9        0.000000        1.831768         3    ;  uncertainty k = 0.237307
        15        12        13        31     9      180.000000       -0.291728         4    ;  uncertainty k = 0.147847
        16        14        13        31     9        0.000000        2.650615         1    ;  uncertainty k = 0.519129
        16        14        13        31     9      180.000000       -1.473667         2    ;  uncertainty k = 0.369142
        16        14        13        31     9        0.000000        0.503149         3    ;  uncertainty k = 0.248381
        16        14        13        31     9      180.000000        0.144095         4    ;  uncertainty k = 0.138005
        16        14        20        19     9        0.000000       -4.769725         1    ;  uncertainty k = 1.415166
        16        14        20        19     9      180.000000        0.201537         2    ;  uncertainty k = 0.751947
        16        14        20        19     9        0.000000        0.925807         3    ;  uncertainty k = 0.341424
        16        14        20        19     9      180.000000       -1.207936         4    ;  uncertainty k = 0.157739
        16        14        20        60     9        0.000000       -0.721620         1    ;  uncertainty k = 0.641095
        16        14        20        60     9      180.000000       -0.679473         2    ;  uncertainty k = 0.270082
        16        14        20        60     9        0.000000        0.104003         3    ;  uncertainty k = 0.043100
        16        14        20        60     9      180.000000       -0.120906         4    ;  uncertainty k = 0.094153
        16        14        20        61     9        0.000000       -0.721620         1    ;  uncertainty k = 0.641095
        16        14        20        61     9      180.000000       -0.679473         2    ;  uncertainty k = 0.270082
        16        14        20        61     9        0.000000        0.104003         3    ;  uncertainty k = 0.043100
        16        14        20        61     9      180.000000       -0.120906         4    ;  uncertainty k = 0.094153
        16        17        18        19     9        0.000000       -3.684684         1    ;  uncertainty k = 1.555404
        16        17        18        19     9      180.000000       -0.286572         2    ;  uncertainty k = 0.574153
        16        17        18        19     9        0.000000        0.981635         3    ;  uncertainty k = 0.134172
        16        17        18        19     9      180.000000       -1.149549         4    ;  uncertainty k = 0.220596
        16        17        18        50     9        0.000000       -1.988663         1    ;  uncertainty k = 0.821936
        16        17        18        50     9      180.000000       -0.960549         2    ;  uncertainty k = 0.272982
        16        17        18        50     9        0.000000        0.443546         3    ;  uncertainty k = 0.317502
        16        17        18        50     9      180.000000        0.183458         4    ;  uncertainty k = 0.094088
        16        17        18        57     9        0.000000       -1.929217         1    ;  uncertainty k = 0.461104
        16        17        18        57     9      180.000000       -0.447748         2    ;  uncertainty k = 0.220193
        16        17        18        57     9        0.000000        0.087566         3    ;  uncertainty k = 0.087859
        16        17        18        57     9      180.000000       -0.164482         4    ;  uncertainty k = 0.141866
        16        21        22        23     9        0.000000        3.958068         1    ;  uncertainty k = 1.380043
        16        21        22        23     9      180.000000       12.511831         2    ;  uncertainty k = 0.156026
        16        21        22        23     9        0.000000        1.263553         3    ;  uncertainty k = 0.259475
        16        21        22        23     9      180.000000       -1.435052         4    ;  uncertainty k = 0.493362
        16        21        22        24     9        0.000000        4.206341         1    ;  uncertainty k = 1.055487
        16        21        22        24     9      180.000000       13.261930         2    ;  uncertainty k = 0.104052
        16        21        22        24     9        0.000000        0.422296         3    ;  uncertainty k = 0.282045
        16        21        22        24     9      180.000000       -0.345763         4    ;  uncertainty k = 0.133307
        17        16        14        20     9        0.000000       -1.470264         1    ;  uncertainty k = 2.461753
        17        16        14        20     9      180.000000        0.524671         2    ;  uncertainty k = 0.969946
        17        16        14        20     9        0.000000        0.425296         3    ;  uncertainty k = 0.508322
        17        16        14        20     9      180.000000       -1.120347         4    ;  uncertainty k = 0.264941
        17        16        14        32     9        0.000000       -1.280058         1    ;  uncertainty k = 0.301450
        17        16        14        32     9      180.000000       -0.208066         2    ;  uncertainty k = 0.248022
        17        16        14        32     9        0.000000       -0.234106         3    ;  uncertainty k = 0.060789
        17        16        14        32     9      180.000000       -0.145743         4    ;  uncertainty k = 0.047964
        17        16        21        22     9        0.000000        0.364606         1    ;  uncertainty k = 0.383608
        17        16        21        22     9      180.000000        0.211641         2    ;  uncertainty k = 0.299414
        17        16        21        22     9        0.000000        0.181029         3    ;  uncertainty k = 0.072944
        17        16        21        22     9      180.000000        0.342393         4    ;  uncertainty k = 0.127149
        17        16        21        33     9        0.000000        0.945683         1    ;  uncertainty k = 0.464115
        17        16        21        33     9      180.000000       -0.514672         2    ;  uncertainty k = 0.347973
        17        16        21        33     9        0.000000        0.327272         3    ;  uncertainty k = 0.178732
        17        16        21        33     9      180.000000        0.059847         4    ;  uncertainty k = 0.085826
        17        18        19        20     9        0.000000       -5.487573         1    ;  uncertainty k = 0.618648
        17        18        19        20     9      180.000000        0.628450         2    ;  uncertainty k = 0.548060
        17        18        19        20     9        0.000000        1.367560         3    ;  uncertainty k = 0.173350
        17        18        19        20     9      180.000000       -1.033143         4    ;  uncertainty k = 0.273102
        17        18        19        58     9        0.000000       -1.226844         1    ;  uncertainty k = 0.266748
        17        18        19        58     9      180.000000       -0.345485         2    ;  uncertainty k = 0.101300
        17        18        19        58     9        0.000000        0.394880         3    ;  uncertainty k = 0.108227
        17        18        19        58     9      180.000000       -0.070781         4    ;  uncertainty k = 0.048007
        17        18        19        59     9        0.000000       -1.226844         1    ;  uncertainty k = 0.266748
        17        18        19        59     9      180.000000       -0.345485         2    ;  uncertainty k = 0.101300
        17        18        19        59     9        0.000000        0.394880         3    ;  uncertainty k = 0.108227
        17        18        19        59     9      180.000000       -0.070781         4    ;  uncertainty k = 0.048007
        17        18        50        51     9        0.000000       -1.170185         1    ;  uncertainty k = 0.334655
        17        18        50        51     9      180.000000        4.880266         2    ;  uncertainty k = 0.323686
        17        18        50        51     9        0.000000        1.279706         3    ;  uncertainty k = 0.118363
        17        18        50        51     9      180.000000        0.575624         4    ;  uncertainty k = 0.083005
        17        18        50        52     9        0.000000       -1.631697         1    ;  uncertainty k = 0.279350
        17        18        50        52     9      180.000000        3.392199         2    ;  uncertainty k = 0.510159
        17        18        50        52     9        0.000000        0.814553         3    ;  uncertainty k = 0.127255
        17        18        50        52     9      180.000000        0.128487         4    ;  uncertainty k = 0.053904
        18        17        16        21     9        0.000000       -2.824384         1    ;  uncertainty k = 0.488217
        18        17        16        21     9      180.000000       -0.460507         2    ;  uncertainty k = 0.536155
        18        17        16        21     9        0.000000        0.759551         3    ;  uncertainty k = 0.189386
        18        17        16        21     9      180.000000       -0.140203         4    ;  uncertainty k = 0.174781
        18        17        16        68     9        0.000000       -0.730287         1    ;  uncertainty k = 0.498293
        18        17        16        68     9      180.000000       -0.792172         2    ;  uncertainty k = 0.456680
        18        17        16        68     9        0.000000       -0.041965         3    ;  uncertainty k = 0.196130
        18        17        16        68     9      180.000000       -0.091310         4    ;  uncertainty k = 0.082273
        18        19        20        60     9        0.000000       -1.242829         1    ;  uncertainty k = 0.333977
        18        19        20        60     9      180.000000       -0.548741         2    ;  uncertainty k = 0.201763
        18        19        20        60     9        0.000000        0.486940         3    ;  uncertainty k = 0.161944
        18        19        20        60     9      180.000000       -0.063210         4    ;  uncertainty k = 0.051028
        18        19        20        61     9        0.000000       -1.242829         1    ;  uncertainty k = 0.333977
        18        19        20        61     9      180.000000       -0.548741         2    ;  uncertainty k = 0.201763
        18        19        20        61     9        0.000000        0.486940         3    ;  uncertainty k = 0.161944
        18        19        20        61     9      180.000000       -0.063210         4    ;  uncertainty k = 0.051028
        18        50        52        53     9        0.000000        9.050821         1    ;  uncertainty k = 0.304912
        18        50        52        53     9      180.000000        6.374692         2    ;  uncertainty k = 0.405917
        18        50        52        53     9        0.000000        1.178678         3    ;  uncertainty k = 0.297789
        18        50        52        53     9      180.000000        0.054538         4    ;  uncertainty k = 0.124306
        18        50        52        54     9        0.000000        9.050821         1    ;  uncertainty k = 0.304912
        18        50        52        54     9      180.000000        6.374692         2    ;  uncertainty k = 0.405917
        18        50        52        54     9        0.000000        1.178678         3    ;  uncertainty k = 0.297789
        18        50        52        54     9      180.000000        0.054538         4    ;  uncertainty k = 0.124306
        19        18        17        55     9        0.000000       -1.411123         1    ;  uncertainty k = 0.345622
        19        18        17        55     9      180.000000       -0.225290         2    ;  uncertainty k = 0.172594
        19        18        17        55     9        0.000000        0.346843         3    ;  uncertainty k = 0.114252
        19        18        17        55     9      180.000000       -0.038457         4    ;  uncertainty k = 0.044896
        19        18        17        56     9        0.000000       -1.411123         1    ;  uncertainty k = 0.345622
        19        18        17        56     9      180.000000       -0.225290         2    ;  uncertainty k = 0.172594
        19        18        17        56     9        0.000000        0.346843         3    ;  uncertainty k = 0.114252
        19        18        17        56     9      180.000000       -0.038457         4    ;  uncertainty k = 0.044896
        19        18        50        51     9        0.000000       -1.412751         1    ;  uncertainty k = 0.366362
        19        18        50        51     9      180.000000        4.939282         2    ;  uncertainty k = 0.250194
        19        18        50        51     9        0.000000        1.341107         3    ;  uncertainty k = 0.099404
        19        18        50        51     9      180.000000        0.562838         4    ;  uncertainty k = 0.064019
        19        18        50        52     9        0.000000       -1.501807         1    ;  uncertainty k = 0.463410
        19        18        50        52     9      180.000000        3.323275         2    ;  uncertainty k = 0.502078
        19        18        50        52     9        0.000000        0.807080         3    ;  uncertainty k = 0.124119
        19        18        50        52     9      180.000000        0.125518         4    ;  uncertainty k = 0.039696
        19        20        14        32     9        0.000000       -1.467742         1    ;  uncertainty k = 0.302096
        19        20        14        32     9      180.000000       -0.257258         2    ;  uncertainty k = 0.240113
        19        20        14        32     9        0.000000        0.030321         3    ;  uncertainty k = 0.101962
        19        20        14        32     9      180.000000       -0.152013         4    ;  uncertainty k = 0.107484
        20        14        13        31     9        0.000000        0.675120         1    ;  uncertainty k = 0.756648
        20        14        13        31     9      180.000000       -0.397539         2    ;  uncertainty k = 0.326254
        20        14        13        31     9        0.000000        0.278917         3    ;  uncertainty k = 0.118776
        20        14        13        31     9      180.000000        0.029879         4    ;  uncertainty k = 0.076486
        20        14        16        21     9        0.000000       -2.812770         1    ;  uncertainty k = 0.476021
        20        14        16        21     9      180.000000       -0.110266         2    ;  uncertainty k = 0.376076
        20        14        16        21     9        0.000000        0.581736         3    ;  uncertainty k = 0.177495
        20        14        16        21     9      180.000000       -0.070447         4    ;  uncertainty k = 0.196410
        20        14        16        68     9        0.000000       -1.253602         1    ;  uncertainty k = 0.261135
        20        14        16        68     9      180.000000       -0.299214         2    ;  uncertainty k = 0.366643
        20        14        16        68     9        0.000000       -0.218863         3    ;  uncertainty k = 0.083190
        20        14        16        68     9      180.000000       -0.165690         4    ;  uncertainty k = 0.068380
        20        19        18        50     9        0.000000       -3.042856         1    ;  uncertainty k = 1.255460
        20        19        18        50     9      180.000000       -0.384066         2    ;  uncertainty k = 0.506050
        20        19        18        50     9        0.000000        0.568068         3    ;  uncertainty k = 0.143563
        20        19        18        50     9      180.000000        0.123689         4    ;  uncertainty k = 0.149073
        20        19        18        57     9        0.000000       -2.461228         1    ;  uncertainty k = 0.396150
        20        19        18        57     9      180.000000        0.138744         2    ;  uncertainty k = 0.107060
        20        19        18        57     9        0.000000        0.248333         3    ;  uncertainty k = 0.111967
        20        19        18        57     9      180.000000       -0.235150         4    ;  uncertainty k = 0.140386
        21        16        14        32     9        0.000000        0.062344         1    ;  uncertainty k = 1.100183
        21        16        14        32     9      180.000000       -1.469345         2    ;  uncertainty k = 0.520599
        21        16        14        32     9        0.000000        0.495032         3    ;  uncertainty k = 0.272668
        21        16        14        32     9      180.000000       -0.255767         4    ;  uncertainty k = 0.119865
        21        16        17        55     9        0.000000       -0.427435         1    ;  uncertainty k = 0.715503
        21        16        17        55     9      180.000000       -1.219759         2    ;  uncertainty k = 0.324042
        21        16        17        55     9        0.000000        0.959594         3    ;  uncertainty k = 0.057792
        21        16        17        55     9      180.000000       -0.287421         4    ;  uncertainty k = 0.054437
        21        16        17        56     9        0.000000       -0.427435         1    ;  uncertainty k = 0.715503
        21        16        17        56     9      180.000000       -1.219759         2    ;  uncertainty k = 0.324042
        21        16        17        56     9        0.000000        0.959594         3    ;  uncertainty k = 0.057792
        21        16        17        56     9      180.000000       -0.287421         4    ;  uncertainty k = 0.054437
        21        22        23        25     9        0.000000        2.331066         1    ;  uncertainty k = 1.152102
        21        22        23        25     9      180.000000        2.596169         2    ;  uncertainty k = 0.278815
        21        22        23        25     9        0.000000        0.009927         3    ;  uncertainty k = 0.144977
        21        22        23        25     9      180.000000       -0.114334         4    ;  uncertainty k = 0.149289
        21        22        23        26     9        0.000000        3.367960         1    ;  uncertainty k = 1.051353
        21        22        23        26     9      180.000000        3.218021         2    ;  uncertainty k = 0.680396
        21        22        23        26     9        0.000000        1.143577         3    ;  uncertainty k = 0.311002
        21        22        23        26     9      180.000000       -0.348976         4    ;  uncertainty k = 0.193639
        22        21        16        68     9        0.000000        1.089648         1    ;  uncertainty k = 0.334910
        22        21        16        68     9      180.000000       -0.432136         2    ;  uncertainty k = 0.173910
        22        21        16        68     9        0.000000        0.083475         3    ;  uncertainty k = 0.110493
        22        21        16        68     9      180.000000        0.217577         4    ;  uncertainty k = 0.051810
        22        23        25        34     9        0.000000        0.338836         1    ;  uncertainty k = 0.784673
        22        23        25        34     9      180.000000       19.192857         2    ;  uncertainty k = 0.359716
        22        23        25        34     9        0.000000        1.903447         3    ;  uncertainty k = 0.386883
        22        23        25        34     9      180.000000        1.368535         4    ;  uncertainty k = 0.528772
        22        23        26        35     9        0.000000        0.370727         1    ;  uncertainty k = 1.804242
        22        23        26        35     9      180.000000        8.920830         2    ;  uncertainty k = 1.081273
        22        23        26        35     9        0.000000        0.589745         3    ;  uncertainty k = 1.110553
        22        23        26        35     9      180.000000        0.676613         4    ;  uncertainty k = 0.547063
        23        22        21        33     9        0.000000       -0.086051         1    ;  uncertainty k = 0.569285
        23        22        21        33     9      180.000000        6.824223         2    ;  uncertainty k = 1.004102
        23        22        21        33     9        0.000000        2.774672         3    ;  uncertainty k = 0.278048
        23        22        21        33     9      180.000000        0.087878         4    ;  uncertainty k = 0.345011
        23        25        34        35     9        0.000000       -0.476241         1    ;  uncertainty k = 0.425307
        23        25        34        35     9      180.000000       15.671500         2    ;  uncertainty k = 0.795841
        23        25        34        35     9        0.000000       -2.864533         3    ;  uncertainty k = 0.780902
        23        25        34        35     9      180.000000        1.605024         4    ;  uncertainty k = 0.448125
        23        25        34        39     9        0.000000        0.569206         1    ;  uncertainty k = 1.621980
        23        25        34        39     9      180.000000       12.800205         2    ;  uncertainty k = 0.282748
        23        25        34        39     9        0.000000        1.817073         3    ;  uncertainty k = 0.361654
        23        25        34        39     9      180.000000        0.682642         4    ;  uncertainty k = 0.136948
        23        26        35        34     9        0.000000       -0.523789         1    ;  uncertainty k = 1.004169
        23        26        35        34     9      180.000000       13.442345         2    ;  uncertainty k = 0.923619
        23        26        35        34     9        0.000000       -9.024257         3    ;  uncertainty k = 1.660071
        23        26        35        34     9      180.000000        1.636793         4    ;  uncertainty k = 0.487983
        23        26        35        36     9        0.000000        1.116166         1    ;  uncertainty k = 1.266411
        23        26        35        36     9      180.000000       10.158909         2    ;  uncertainty k = 0.818049
        23        26        35        36     9        0.000000        0.724355         3    ;  uncertainty k = 0.566010
        23        26        35        36     9      180.000000       -0.026620         4    ;  uncertainty k = 0.200593
        24        22        21        33     9        0.000000        2.038363         1    ;  uncertainty k = 0.746143
        24        22        21        33     9      180.000000       14.699346         2    ;  uncertainty k = 0.325315
        24        22        21        33     9        0.000000        1.840592         3    ;  uncertainty k = 0.226058
        24        22        21        33     9      180.000000       -0.518143         4    ;  uncertainty k = 0.264067
        24        22        23        25     9        0.000000       -0.975565         1    ;  uncertainty k = 1.614283
        24        22        23        25     9      180.000000        3.488550         2    ;  uncertainty k = 0.286154
        24        22        23        25     9        0.000000        0.632000         3    ;  uncertainty k = 0.220397
        24        22        23        25     9      180.000000        0.223278         4    ;  uncertainty k = 0.063243
        24        22        23        26     9        0.000000       -0.928770         1    ;  uncertainty k = 0.780300
        24        22        23        26     9      180.000000        4.634695         2    ;  uncertainty k = 0.475093
        24        22        23        26     9        0.000000        0.007574         3    ;  uncertainty k = 0.071977
        24        22        23        26     9      180.000000        0.288910         4    ;  uncertainty k = 0.240907
        25        23        26        35     9        0.000000        0.143511         1    ;  uncertainty k = 1.333641
        25        23        26        35     9      180.000000       14.564367         2    ;  uncertainty k = 1.374348
        25        23        26        35     9        0.000000       -9.893199         3    ;  uncertainty k = 1.620531
        25        23        26        35     9      180.000000        1.663619         4    ;  uncertainty k = 0.759588
        25        34        35        26     9        0.000000        0.087022         1    ;  uncertainty k = 0.519435
        25        34        35        26     9      180.000000       17.308740         2    ;  uncertainty k = 0.865665
        25        34        35        26     9        0.000000       -2.374264         3    ;  uncertainty k = 0.748324
        25        34        35        26     9      180.000000        1.160228         4    ;  uncertainty k = 0.641111
        25        34        35        36     9        0.000000        0.011055         1    ;  uncertainty k = 0.425259
        25        34        35        36     9      180.000000       14.953749         2    ;  uncertainty k = 0.328993
        25        34        35        36     9        0.000000        1.241934         3    ;  uncertainty k = 0.342959
        25        34        35        36     9      180.000000        1.144042         4    ;  uncertainty k = 0.470191
        25        34        39        38     9        0.000000       -3.954572         1    ;  uncertainty k = 1.035742
        25        34        39        38     9      180.000000        1.199577         2    ;  uncertainty k = 0.494541
        25        34        39        38     9        0.000000        0.552603         3    ;  uncertainty k = 0.196554
        25        34        39        38     9      180.000000        0.408701         4    ;  uncertainty k = 0.071879
        25        34        39        45     9        0.000000        0.678330         1    ;  uncertainty k = 0.150352
        25        34        39        45     9      180.000000        1.438459         2    ;  uncertainty k = 0.504096
        25        34        39        45     9        0.000000        0.609129         3    ;  uncertainty k = 0.196471
        25        34        39        45     9      180.000000        0.167234         4    ;  uncertainty k = 0.108981
        25        34        39        46     9        0.000000        0.678330         1    ;  uncertainty k = 0.150352
        25        34        39        46     9      180.000000        1.438459         2    ;  uncertainty k = 0.504096
        25        34        39        46     9        0.000000        0.609129         3    ;  uncertainty k = 0.196471
        25        34        39        46     9      180.000000        0.167234         4    ;  uncertainty k = 0.108981
        26        23        25        34     9        0.000000       -0.152600         1    ;  uncertainty k = 0.906407
        26        23        25        34     9      180.000000       20.432965         2    ;  uncertainty k = 0.275340
        26        23        25        34     9        0.000000       -2.337892         3    ;  uncertainty k = 1.016825
        26        23        25        34     9      180.000000        1.938626         4    ;  uncertainty k = 0.362221
        26        35        34        39     9        0.000000        0.239944         1    ;  uncertainty k = 0.547138
        26        35        34        39     9      180.000000       12.400727         2    ;  uncertainty k = 0.549556
        26        35        34        39     9        0.000000        0.936373         3    ;  uncertainty k = 0.318788
        26        35        34        39     9      180.000000        0.958147         4    ;  uncertainty k = 0.190163
        26        35        36        37     9        0.000000       -8.471687         1    ;  uncertainty k = 1.305576
        26        35        36        37     9      180.000000       -0.738803         2    ;  uncertainty k = 0.986263
        26        35        36        37     9        0.000000        0.572190         3    ;  uncertainty k = 0.535086
        26        35        36        37     9      180.000000        0.223231         4    ;  uncertainty k = 0.263405
        26        35        36        41     9        0.000000        0.153964         1    ;  uncertainty k = 0.629108
        26        35        36        41     9      180.000000        0.393717         2    ;  uncertainty k = 0.317135
        26        35        36        41     9        0.000000        0.658149         3    ;  uncertainty k = 0.161833
        26        35        36        41     9      180.000000       -0.071880         4    ;  uncertainty k = 0.067074
        26        35        36        42     9        0.000000        0.153964         1    ;  uncertainty k = 0.629108
        26        35        36        42     9      180.000000        0.393717         2    ;  uncertainty k = 0.317135
        26        35        36        42     9        0.000000        0.658149         3    ;  uncertainty k = 0.161833
        26        35        36        42     9      180.000000       -0.071880         4    ;  uncertainty k = 0.067074
        28         8         9        29     9        0.000000       -0.120116         1    ;  uncertainty k = 0.204908
        28         8         9        29     9      180.000000        9.005795         2    ;  uncertainty k = 0.550027
        28         8         9        29     9        0.000000       -0.230983         3    ;  uncertainty k = 0.218634
        28         8         9        29     9      180.000000        0.189951         4    ;  uncertainty k = 0.221648
        31        13        14        32     9        0.000000        0.495965         1    ;  uncertainty k = 0.491069
        31        13        14        32     9      180.000000       -0.512277         2    ;  uncertainty k = 0.239118
        31        13        14        32     9        0.000000        0.161896         3    ;  uncertainty k = 0.135194
        31        13        14        32     9      180.000000        0.199507         4    ;  uncertainty k = 0.063999
        32        14        16        68     9        0.000000        1.517630         1    ;  uncertainty k = 0.278770
        32        14        16        68     9      180.000000       -0.677363         2    ;  uncertainty k = 0.157231
        32        14        16        68     9        0.000000       -0.219450         3    ;  uncertainty k = 0.164898
        32        14        16        68     9      180.000000       -0.045434         4    ;  uncertainty k = 0.124459
        32        14        20        60     9        0.000000        1.377005         1    ;  uncertainty k = 0.283194
        32        14        20        60     9      180.000000       -0.510553         2    ;  uncertainty k = 0.208115
        32        14        20        60     9        0.000000       -0.078579         3    ;  uncertainty k = 0.110925
        32        14        20        60     9      180.000000        0.041475         4    ;  uncertainty k = 0.028475
        32        14        20        61     9        0.000000        1.377005         1    ;  uncertainty k = 0.283194
        32        14        20        61     9      180.000000       -0.510553         2    ;  uncertainty k = 0.208115
        32        14        20        61     9        0.000000       -0.078579         3    ;  uncertainty k = 0.110925
        32        14        20        61     9      180.000000        0.041475         4    ;  uncertainty k = 0.028475
        33        21        16        68     9        0.000000        0.541481         1    ;  uncertainty k = 0.398177
        33        21        16        68     9      180.000000       -0.622570         2    ;  uncertainty k = 0.184277
        33        21        16        68     9        0.000000        0.191619         3    ;  uncertainty k = 0.116496
        33        21        16        68     9      180.000000        0.189193         4    ;  uncertainty k = 0.076095
        34        35        36        37     9        0.000000       -4.140071         1    ;  uncertainty k = 1.925675
        34        35        36        37     9      180.000000        2.074247         2    ;  uncertainty k = 0.552905
        34        35        36        37     9        0.000000       -0.109904         3    ;  uncertainty k = 0.505232
        34        35        36        37     9      180.000000        0.002033         4    ;  uncertainty k = 0.168271
        34        35        36        41     9        0.000000        0.751076         1    ;  uncertainty k = 0.572851
        34        35        36        41     9      180.000000        0.321327         2    ;  uncertainty k = 0.277446
        34        35        36        41     9        0.000000       -0.191165         3    ;  uncertainty k = 0.140749
        34        35        36        41     9      180.000000       -0.337116         4    ;  uncertainty k = 0.203995
        34        35        36        42     9        0.000000        0.751076         1    ;  uncertainty k = 0.572851
        34        35        36        42     9      180.000000        0.321327         2    ;  uncertainty k = 0.277446
        34        35        36        42     9        0.000000       -0.191165         3    ;  uncertainty k = 0.140749
        34        35        36        42     9      180.000000       -0.337116         4    ;  uncertainty k = 0.203995
        34        39        38        37     9        0.000000       -2.230974         1    ;  uncertainty k = 1.801449
        34        39        38        37     9      180.000000       -1.841150         2    ;  uncertainty k = 0.733686
        34        39        38        37     9        0.000000        2.407959         3    ;  uncertainty k = 0.680334
        34        39        38        37     9      180.000000       -0.535745         4    ;  uncertainty k = 0.301690
        34        39        38        43     9        0.000000        1.199598         1    ;  uncertainty k = 0.377899
        34        39        38        43     9      180.000000       -1.613470         2    ;  uncertainty k = 0.549592
        34        39        38        43     9        0.000000        0.472706         3    ;  uncertainty k = 0.260800
        34        39        38        43     9      180.000000        0.111560         4    ;  uncertainty k = 0.091588
        34        39        38        44     9        0.000000        1.199598         1    ;  uncertainty k = 0.377899
        34        39        38        44     9      180.000000       -1.613470         2    ;  uncertainty k = 0.549592
        34        39        38        44     9        0.000000        0.472706         3    ;  uncertainty k = 0.260800
        34        39        38        44     9      180.000000        0.111560         4    ;  uncertainty k = 0.091588
        35        34        39        38     9        0.000000       -4.440652         1    ;  uncertainty k = 1.431166
        35        34        39        38     9      180.000000        4.155396         2    ;  uncertainty k = 1.296225
        35        34        39        38     9        0.000000       -0.642889         3    ;  uncertainty k = 0.597439
        35        34        39        38     9      180.000000       -0.217610         4    ;  uncertainty k = 0.318749
        35        34        39        45     9        0.000000        0.013025         1    ;  uncertainty k = 0.359065
        35        34        39        45     9      180.000000        1.250042         2    ;  uncertainty k = 0.490358
        35        34        39        45     9        0.000000        0.121610         3    ;  uncertainty k = 0.182463
        35        34        39        45     9      180.000000       -0.043715         4    ;  uncertainty k = 0.054548
        35        34        39        46     9        0.000000        0.013025         1    ;  uncertainty k = 0.359065
        35        34        39        46     9      180.000000        1.250042         2    ;  uncertainty k = 0.490358
        35        34        39        46     9        0.000000        0.121610         3    ;  uncertainty k = 0.182463
        35        34        39        46     9      180.000000       -0.043715         4    ;  uncertainty k = 0.054548
        35        36        37        38     9        0.000000       -2.931117         1    ;  uncertainty k = 2.436693
        35        36        37        38     9      180.000000       -1.451129         2    ;  uncertainty k = 0.464093
        35        36        37        38     9        0.000000        1.404828         3    ;  uncertainty k = 0.130307
        35        36        37        38     9      180.000000       -0.528609         4    ;  uncertainty k = 0.249297
        35        36        37        40     9        0.000000       -2.021362         1    ;  uncertainty k = 1.008927
        35        36        37        40     9      180.000000       -1.118312         2    ;  uncertainty k = 0.472230
        35        36        37        40     9        0.000000        1.258207         3    ;  uncertainty k = 0.234248
        35        36        37        40     9      180.000000       -0.045254         4    ;  uncertainty k = 0.250793
        36        35        34        39     9        0.000000        0.282381         1    ;  uncertainty k = 0.657141
        36        35        34        39     9      180.000000       10.551064         2    ;  uncertainty k = 0.221306
        36        35        34        39     9        0.000000        1.077819         3    ;  uncertainty k = 0.516713
        36        35        34        39     9      180.000000        0.991474         4    ;  uncertainty k = 0.186199
        36        37        38        39     9        0.000000       -4.350974         1    ;  uncertainty k = 2.057076
        36        37        38        39     9      180.000000       -1.496991         2    ;  uncertainty k = 0.799614
        36        37        38        39     9        0.000000        0.281379         3    ;  uncertainty k = 0.338606
        36        37        38        39     9      180.000000       -0.187310         4    ;  uncertainty k = 0.252807
        36        37        38        43     9        0.000000       -6.987612         1    ;  uncertainty k = 0.982733
        36        37        38        43     9      180.000000       -0.297910         2    ;  uncertainty k = 0.446998
        36        37        38        43     9        0.000000        0.675891         3    ;  uncertainty k = 0.207193
        36        37        38        43     9      180.000000       -0.045061         4    ;  uncertainty k = 0.100310
        36        37        38        44     9        0.000000       -6.987612         1    ;  uncertainty k = 0.982733
        36        37        38        44     9      180.000000       -0.297910         2    ;  uncertainty k = 0.446998
        36        37        38        44     9        0.000000        0.675891         3    ;  uncertainty k = 0.207193
        36        37        38        44     9      180.000000       -0.045061         4    ;  uncertainty k = 0.100310
        36        37        40        47     9        0.000000       -4.178510         1    ;  uncertainty k = 0.410688
        36        37        40        47     9      180.000000       -2.187807         2    ;  uncertainty k = 0.398638
        36        37        40        47     9        0.000000        1.157619         3    ;  uncertainty k = 0.069416
        36        37        40        47     9      180.000000        0.075129         4    ;  uncertainty k = 0.097696
        36        37        40        48     9        0.000000       -4.178510         1    ;  uncertainty k = 0.410688
        36        37        40        48     9      180.000000       -2.187807         2    ;  uncertainty k = 0.398638
        36        37        40        48     9        0.000000        1.157619         3    ;  uncertainty k = 0.069416
        36        37        40        48     9      180.000000        0.075129         4    ;  uncertainty k = 0.097696
        36        37        40        49     9        0.000000       -4.178510         1    ;  uncertainty k = 0.410688
        36        37        40        49     9      180.000000       -2.187807         2    ;  uncertainty k = 0.398638
        36        37        40        49     9        0.000000        1.157619         3    ;  uncertainty k = 0.069416
        36        37        40        49     9      180.000000        0.075129         4    ;  uncertainty k = 0.097696
        37        38        39        45     9        0.000000       -0.446420         1    ;  uncertainty k = 0.389425
        37        38        39        45     9      180.000000       -0.446895         2    ;  uncertainty k = 0.443633
        37        38        39        45     9        0.000000        1.043482         3    ;  uncertainty k = 0.139130
        37        38        39        45     9      180.000000       -0.054508         4    ;  uncertainty k = 0.166266
        37        38        39        46     9        0.000000       -0.446420         1    ;  uncertainty k = 0.389425
        37        38        39        46     9      180.000000       -0.446895         2    ;  uncertainty k = 0.443633
        37        38        39        46     9        0.000000        1.043482         3    ;  uncertainty k = 0.139130
        37        38        39        46     9      180.000000       -0.054508         4    ;  uncertainty k = 0.166266
        38        37        36        41     9        0.000000       -4.951174         1    ;  uncertainty k = 1.276230
        38        37        36        41     9      180.000000       -0.772512         2    ;  uncertainty k = 0.594344
        38        37        36        41     9        0.000000        0.687582         3    ;  uncertainty k = 0.234878
        38        37        36        41     9      180.000000        0.165440         4    ;  uncertainty k = 0.126758
        38        37        36        42     9        0.000000       -4.951174         1    ;  uncertainty k = 1.276230
        38        37        36        42     9      180.000000       -0.772512         2    ;  uncertainty k = 0.594344
        38        37        36        42     9        0.000000        0.687582         3    ;  uncertainty k = 0.234878
        38        37        36        42     9      180.000000        0.165440         4    ;  uncertainty k = 0.126758
        38        37        40        47     9        0.000000       -4.259086         1    ;  uncertainty k = 0.974846
        38        37        40        47     9      180.000000       -2.027003         2    ;  uncertainty k = 0.417753
        38        37        40        47     9        0.000000        1.017651         3    ;  uncertainty k = 0.103023
        38        37        40        47     9      180.000000        0.065258         4    ;  uncertainty k = 0.091860
        38        37        40        48     9        0.000000       -4.259086         1    ;  uncertainty k = 0.974846
        38        37        40        48     9      180.000000       -2.027003         2    ;  uncertainty k = 0.417753
        38        37        40        48     9        0.000000        1.017651         3    ;  uncertainty k = 0.103023
        38        37        40        48     9      180.000000        0.065258         4    ;  uncertainty k = 0.091860
        38        37        40        49     9        0.000000       -4.259086         1    ;  uncertainty k = 0.974846
        38        37        40        49     9      180.000000       -2.027003         2    ;  uncertainty k = 0.417753
        38        37        40        49     9        0.000000        1.017651         3    ;  uncertainty k = 0.103023
        38        37        40        49     9      180.000000        0.065258         4    ;  uncertainty k = 0.091860
        39        38        37        40     9        0.000000       -2.366425         1    ;  uncertainty k = 0.799682
        39        38        37        40     9      180.000000       -0.858215         2    ;  uncertainty k = 0.575132
        39        38        37        40     9        0.000000        0.300582         3    ;  uncertainty k = 0.302529
        39        38        37        40     9      180.000000        0.326407         4    ;  uncertainty k = 0.081722
        40        37        36        41     9        0.000000       -2.503106         1    ;  uncertainty k = 0.610923
        40        37        36        41     9      180.000000       -1.207857         2    ;  uncertainty k = 0.461275
        40        37        36        41     9        0.000000        0.607046         3    ;  uncertainty k = 0.147323
        40        37        36        41     9      180.000000        0.178325         4    ;  uncertainty k = 0.088460
        40        37        36        42     9        0.000000       -2.503106         1    ;  uncertainty k = 0.610923
        40        37        36        42     9      180.000000       -1.207857         2    ;  uncertainty k = 0.461275
        40        37        36        42     9        0.000000        0.607046         3    ;  uncertainty k = 0.147323
        40        37        36        42     9      180.000000        0.178325         4    ;  uncertainty k = 0.088460
        40        37        38        43     9        0.000000       -3.143701         1    ;  uncertainty k = 0.576024
        40        37        38        43     9      180.000000       -1.381403         2    ;  uncertainty k = 0.223671
        40        37        38        43     9        0.000000        0.354530         3    ;  uncertainty k = 0.126408
        40        37        38        43     9      180.000000        0.148173         4    ;  uncertainty k = 0.137426
        40        37        38        44     9        0.000000       -3.143701         1    ;  uncertainty k = 0.576024
        40        37        38        44     9      180.000000       -1.381403         2    ;  uncertainty k = 0.223671
        40        37        38        44     9        0.000000        0.354530         3    ;  uncertainty k = 0.126408
        40        37        38        44     9      180.000000        0.148173         4    ;  uncertainty k = 0.137426
        43        38        39        45     9        0.000000       -0.690419         1    ;  uncertainty k = 0.249272
        43        38        39        45     9      180.000000        0.819889         2    ;  uncertainty k = 0.297922
        43        38        39        45     9        0.000000        0.232501         3    ;  uncertainty k = 0.086816
        43        38        39        45     9      180.000000       -0.277806         4    ;  uncertainty k = 0.067741
        43        38        39        46     9        0.000000       -0.690419         1    ;  uncertainty k = 0.249272
        43        38        39        46     9      180.000000        0.819889         2    ;  uncertainty k = 0.297922
        43        38        39        46     9        0.000000        0.232501         3    ;  uncertainty k = 0.086816
        43        38        39        46     9      180.000000       -0.277806         4    ;  uncertainty k = 0.067741
        44        38        39        45     9        0.000000       -0.690419         1    ;  uncertainty k = 0.249272
        44        38        39        45     9      180.000000        0.819889         2    ;  uncertainty k = 0.297922
        44        38        39        45     9        0.000000        0.232501         3    ;  uncertainty k = 0.086816
        44        38        39        45     9      180.000000       -0.277806         4    ;  uncertainty k = 0.067741
        44        38        39        46     9        0.000000       -0.690419         1    ;  uncertainty k = 0.249272
        44        38        39        46     9      180.000000        0.819889         2    ;  uncertainty k = 0.297922
        44        38        39        46     9        0.000000        0.232501         3    ;  uncertainty k = 0.086816
        44        38        39        46     9      180.000000       -0.277806         4    ;  uncertainty k = 0.067741
        50        18        17        55     9        0.000000        2.074967         1    ;  uncertainty k = 0.921198
        50        18        17        55     9      180.000000       -0.794571         2    ;  uncertainty k = 0.180952
        50        18        17        55     9        0.000000        0.466866         3    ;  uncertainty k = 0.273235
        50        18        17        55     9      180.000000        0.035537         4    ;  uncertainty k = 0.093276
        50        18        17        56     9        0.000000        2.074967         1    ;  uncertainty k = 0.921198
        50        18        17        56     9      180.000000       -0.794571         2    ;  uncertainty k = 0.180952
        50        18        17        56     9        0.000000        0.466866         3    ;  uncertainty k = 0.273235
        50        18        17        56     9      180.000000        0.035537         4    ;  uncertainty k = 0.093276
        50        18        19        58     9        0.000000        2.252951         1    ;  uncertainty k = 0.998081
        50        18        19        58     9      180.000000       -0.859965         2    ;  uncertainty k = 0.120364
        50        18        19        58     9        0.000000        0.534711         3    ;  uncertainty k = 0.219264
        50        18        19        58     9      180.000000        0.057172         4    ;  uncertainty k = 0.086080
        50        18        19        59     9        0.000000        2.252951         1    ;  uncertainty k = 0.998081
        50        18        19        59     9      180.000000       -0.859965         2    ;  uncertainty k = 0.120364
        50        18        19        59     9        0.000000        0.534711         3    ;  uncertainty k = 0.219264
        50        18        19        59     9      180.000000        0.057172         4    ;  uncertainty k = 0.086080
        50        52        53        62     9        0.000000        0.159650         1    ;  uncertainty k = 0.146342
        50        52        53        62     9      180.000000       -0.144813         2    ;  uncertainty k = 0.094204
        50        52        53        62     9        0.000000        0.215227         3    ;  uncertainty k = 0.050987
        50        52        53        62     9      180.000000        0.244118         4    ;  uncertainty k = 0.052779
        50        52        53        63     9        0.000000        0.159650         1    ;  uncertainty k = 0.146342
        50        52        53        63     9      180.000000       -0.144813         2    ;  uncertainty k = 0.094204
        50        52        53        63     9        0.000000        0.215227         3    ;  uncertainty k = 0.050987
        50        52        53        63     9      180.000000        0.244118         4    ;  uncertainty k = 0.052779
        50        52        53        64     9        0.000000        0.159650         1    ;  uncertainty k = 0.146342
        50        52        53        64     9      180.000000       -0.144813         2    ;  uncertainty k = 0.094204
        50        52        53        64     9        0.000000        0.215227         3    ;  uncertainty k = 0.050987
        50        52        53        64     9      180.000000        0.244118         4    ;  uncertainty k = 0.052779
        50        52        54        65     9        0.000000        0.159650         1    ;  uncertainty k = 0.146342
        50        52        54        65     9      180.000000       -0.144813         2    ;  uncertainty k = 0.094204
        50        52        54        65     9        0.000000        0.215227         3    ;  uncertainty k = 0.050987
        50        52        54        65     9      180.000000        0.244118         4    ;  uncertainty k = 0.052779
        50        52        54        66     9        0.000000        0.159650         1    ;  uncertainty k = 0.146342
        50        52        54        66     9      180.000000       -0.144813         2    ;  uncertainty k = 0.094204
        50        52        54        66     9        0.000000        0.215227         3    ;  uncertainty k = 0.050987
        50        52        54        66     9      180.000000        0.244118         4    ;  uncertainty k = 0.052779
        50        52        54        67     9        0.000000        0.159650         1    ;  uncertainty k = 0.146342
        50        52        54        67     9      180.000000       -0.144813         2    ;  uncertainty k = 0.094204
        50        52        54        67     9        0.000000        0.215227         3    ;  uncertainty k = 0.050987
        50        52        54        67     9      180.000000        0.244118         4    ;  uncertainty k = 0.052779
        51        50        18        57     9        0.000000       -0.646773         1    ;  uncertainty k = 0.397646
        51        50        18        57     9      180.000000        3.762065         2    ;  uncertainty k = 0.492695
        51        50        18        57     9        0.000000        1.483897         3    ;  uncertainty k = 0.235291
        51        50        18        57     9      180.000000       -0.025919         4    ;  uncertainty k = 0.096422
        51        50        52        53     9        0.000000        6.844605         1    ;  uncertainty k = 0.882211
        51        50        52        53     9      180.000000       19.790839         2    ;  uncertainty k = 0.105250
        51        50        52        53     9        0.000000       -0.220230         3    ;  uncertainty k = 0.161100
        51        50        52        53     9      180.000000       -1.123904         4    ;  uncertainty k = 0.136735
        51        50        52        54     9        0.000000        6.844605         1    ;  uncertainty k = 0.882211
        51        50        52        54     9      180.000000       19.790839         2    ;  uncertainty k = 0.105250
        51        50        52        54     9        0.000000       -0.220230         3    ;  uncertainty k = 0.161100
        51        50        52        54     9      180.000000       -1.123904         4    ;  uncertainty k = 0.136735
        52        50        18        57     9        0.000000       -0.975826         1    ;  uncertainty k = 0.419407
        52        50        18        57     9      180.000000        2.303974         2    ;  uncertainty k = 0.241164
        52        50        18        57     9        0.000000        0.361698         3    ;  uncertainty k = 0.116719
        52        50        18        57     9      180.000000        0.170218         4    ;  uncertainty k = 0.047482
        53        52        54        65     9        0.000000       -0.681994         1    ;  uncertainty k = 0.166187
        53        52        54        65     9      180.000000       -1.033629         2    ;  uncertainty k = 0.139918
        53        52        54        65     9        0.000000        1.312135         3    ;  uncertainty k = 0.057549
        53        52        54        65     9      180.000000        0.172025         4    ;  uncertainty k = 0.029064
        53        52        54        66     9        0.000000       -0.681994         1    ;  uncertainty k = 0.166187
        53        52        54        66     9      180.000000       -1.033629         2    ;  uncertainty k = 0.139918
        53        52        54        66     9        0.000000        1.312135         3    ;  uncertainty k = 0.057549
        53        52        54        66     9      180.000000        0.172025         4    ;  uncertainty k = 0.029064
        53        52        54        67     9        0.000000       -0.681994         1    ;  uncertainty k = 0.166187
        53        52        54        67     9      180.000000       -1.033629         2    ;  uncertainty k = 0.139918
        53        52        54        67     9        0.000000        1.312135         3    ;  uncertainty k = 0.057549
        53        52        54        67     9      180.000000        0.172025         4    ;  uncertainty k = 0.029064
        54        52        53        62     9        0.000000       -0.681994         1    ;  uncertainty k = 0.166187
        54        52        53        62     9      180.000000       -1.033629         2    ;  uncertainty k = 0.139918
        54        52        53        62     9        0.000000        1.312135         3    ;  uncertainty k = 0.057549
        54        52        53        62     9      180.000000        0.172025         4    ;  uncertainty k = 0.029064
        54        52        53        63     9        0.000000       -0.681994         1    ;  uncertainty k = 0.166187
        54        52        53        63     9      180.000000       -1.033629         2    ;  uncertainty k = 0.139918
        54        52        53        63     9        0.000000        1.312135         3    ;  uncertainty k = 0.057549
        54        52        53        63     9      180.000000        0.172025         4    ;  uncertainty k = 0.029064
        54        52        53        64     9        0.000000       -0.681994         1    ;  uncertainty k = 0.166187
        54        52        53        64     9      180.000000       -1.033629         2    ;  uncertainty k = 0.139918
        54        52        53        64     9        0.000000        1.312135         3    ;  uncertainty k = 0.057549
        54        52        53        64     9      180.000000        0.172025         4    ;  uncertainty k = 0.029064
        55        17        16        68     9        0.000000        1.227188         1    ;  uncertainty k = 0.333718
        55        17        16        68     9      180.000000       -0.559059         2    ;  uncertainty k = 0.228850
        55        17        16        68     9        0.000000       -0.052658         3    ;  uncertainty k = 0.148156
        55        17        16        68     9      180.000000        0.050866         4    ;  uncertainty k = 0.043410
        55        17        18        57     9        0.000000        1.275091         1    ;  uncertainty k = 0.308666
        55        17        18        57     9      180.000000       -0.191825         2    ;  uncertainty k = 0.161770
        55        17        18        57     9        0.000000       -0.005639         3    ;  uncertainty k = 0.106020
        55        17        18        57     9      180.000000        0.069270         4    ;  uncertainty k = 0.064132
        56        17        16        68     9        0.000000        1.227188         1    ;  uncertainty k = 0.333718
        56        17        16        68     9      180.000000       -0.559059         2    ;  uncertainty k = 0.228850
        56        17        16        68     9        0.000000       -0.052658         3    ;  uncertainty k = 0.148156
        56        17        16        68     9      180.000000        0.050866         4    ;  uncertainty k = 0.043410
        56        17        18        57     9        0.000000        1.275091         1    ;  uncertainty k = 0.308666
        56        17        18        57     9      180.000000       -0.191825         2    ;  uncertainty k = 0.161770
        56        17        18        57     9        0.000000       -0.005639         3    ;  uncertainty k = 0.106020
        56        17        18        57     9      180.000000        0.069270         4    ;  uncertainty k = 0.064132
        57        18        19        58     9        0.000000        1.375228         1    ;  uncertainty k = 0.292892
        57        18        19        58     9      180.000000       -0.112288         2    ;  uncertainty k = 0.227466
        57        18        19        58     9        0.000000       -0.024960         3    ;  uncertainty k = 0.142904
        57        18        19        58     9      180.000000        0.069958         4    ;  uncertainty k = 0.050452
        57        18        19        59     9        0.000000        1.375228         1    ;  uncertainty k = 0.292892
        57        18        19        59     9      180.000000       -0.112288         2    ;  uncertainty k = 0.227466
        57        18        19        59     9        0.000000       -0.024960         3    ;  uncertainty k = 0.142904
        57        18        19        59     9      180.000000        0.069958         4    ;  uncertainty k = 0.050452
        58        19        20        60     9        0.000000        2.326715         1    ;  uncertainty k = 0.674870
        58        19        20        60     9      180.000000       -0.090546         2    ;  uncertainty k = 0.158885
        58        19        20        60     9        0.000000        0.306144         3    ;  uncertainty k = 0.135782
        58        19        20        60     9      180.000000        0.130862         4    ;  uncertainty k = 0.038651
        58        19        20        61     9        0.000000        2.326715         1    ;  uncertainty k = 0.674870
        58        19        20        61     9      180.000000       -0.090546         2    ;  uncertainty k = 0.158885
        58        19        20        61     9        0.000000        0.306144         3    ;  uncertainty k = 0.135782
        58        19        20        61     9      180.000000        0.130862         4    ;  uncertainty k = 0.038651
        59        19        20        60     9        0.000000        2.326715         1    ;  uncertainty k = 0.674870
        59        19        20        60     9      180.000000       -0.090546         2    ;  uncertainty k = 0.158885
        59        19        20        60     9        0.000000        0.306144         3    ;  uncertainty k = 0.135782
        59        19        20        60     9      180.000000        0.130862         4    ;  uncertainty k = 0.038651
        59        19        20        61     9        0.000000        2.326715         1    ;  uncertainty k = 0.674870
        59        19        20        61     9      180.000000       -0.090546         2    ;  uncertainty k = 0.158885
        59        19        20        61     9        0.000000        0.306144         3    ;  uncertainty k = 0.135782
        59        19        20        61     9      180.000000        0.130862         4    ;  uncertainty k = 0.038651

[ dihedrals ] ; impropers
;       ai        aj        ak        al funct           phase               k        pn
         1         3         7        11     4      180.000000       16.262821         2    ;  uncertainty k = 0.096113
         1         7        11         3     4      180.000000       16.262821         2    ;  uncertainty k = 0.096113
         1        11         3         7     4      180.000000       16.262821         2    ;  uncertainty k = 0.096113
         3         1         4         8     4      180.000000        9.392380         2    ;  uncertainty k = 0.332010
         3         4         8         1     4      180.000000        9.392380         2    ;  uncertainty k = 0.332010
         3         8         1         4     4      180.000000        9.392380         2    ;  uncertainty k = 0.332010
         4         3         5        27     4      180.000000        5.703929         2    ;  uncertainty k = 0.246773
         4         5        27         3     4      180.000000        5.703929         2    ;  uncertainty k = 0.246773
         4        27         3         5     4      180.000000        5.703929         2    ;  uncertainty k = 0.246773
         5         4         6        12     4      180.000000       15.236272         2    ;  uncertainty k = 0.183897
         5         6        12         4     4      180.000000       15.236272         2    ;  uncertainty k = 0.183897
         5        12         4         6     4      180.000000       15.236272         2    ;  uncertainty k = 0.183897
         8         3         9        28     4      180.000000        4.586205         2    ;  uncertainty k = 0.173777
         8         9        28         3     4      180.000000        4.586205         2    ;  uncertainty k = 0.173777
         8        28         3         9     4      180.000000        4.586205         2    ;  uncertainty k = 0.173777
         9         8        10        29     4      180.000000        4.121691         2    ;  uncertainty k = 0.128044
         9        10        29         8     4      180.000000        4.121691         2    ;  uncertainty k = 0.128044
         9        29         8        10     4      180.000000        4.121691         2    ;  uncertainty k = 0.128044
        10         2         9        11     4      180.000000       14.367937         2    ;  uncertainty k = 0.053195
        10         9        11         2     4      180.000000       14.367937         2    ;  uncertainty k = 0.053195
        10        11         2         9     4      180.000000       14.367937         2    ;  uncertainty k = 0.053195
        11         1        10        30     4      180.000000        4.370110         2    ;  uncertainty k = 0.267336
        11        10        30         1     4      180.000000        4.370110         2    ;  uncertainty k = 0.267336
        11        30         1        10     4      180.000000        4.370110         2    ;  uncertainty k = 0.267336
        12         5        13        15     4      180.000000       47.233863         2    ;  uncertainty k = 0.029536
        12        13        15         5     4      180.000000       47.233863         2    ;  uncertainty k = 0.029536
        12        15         5        13     4      180.000000       47.233863         2    ;  uncertainty k = 0.029536
        22        21        23        24     4      180.000000       49.476644         2    ;  uncertainty k = 0.014914
        22        23        24        21     4      180.000000       49.476644         2    ;  uncertainty k = 0.014914
        22        24        21        23     4      180.000000       49.476644         2    ;  uncertainty k = 0.014914
        23        22        25        26     4      180.000000        4.762177         2    ;  uncertainty k = 0.485670
        23        25        26        22     4      180.000000        4.762177         2    ;  uncertainty k = 0.485670
        23        26        22        25     4      180.000000        4.762177         2    ;  uncertainty k = 0.485670
        34        25        35        39     4      180.000000       10.302524         2    ;  uncertainty k = 0.235813
        34        35        39        25     4      180.000000       10.302524         2    ;  uncertainty k = 0.235813
        34        39        25        35     4      180.000000       10.302524         2    ;  uncertainty k = 0.235813
        35        26        34        36     4      180.000000        2.894551         2    ;  uncertainty k = 0.672593
        35        34        36        26     4      180.000000        2.894551         2    ;  uncertainty k = 0.672593
        35        36        26        34     4      180.000000        2.894551         2    ;  uncertainty k = 0.672593
        50        18        51        52     4      180.000000       51.316646         2    ;  uncertainty k = 0.028239
        50        51        52        18     4      180.000000       51.316646         2    ;  uncertainty k = 0.028239
        50        52        18        51     4      180.000000       51.316646         2    ;  uncertainty k = 0.028239

[ pairs ]
;       ai        aj funct
         1         2     1
         1         5     1
         1         9     1
         1        27     1
         1        28     1
         2         8     1
         2        29     1
         2        30     1
         3         6     1
         3        10     1
         3        12     1
         3        29     1
         3        30     1
         4         7     1
         4         9     1
         4        11     1
         4        13     1
         4        15     1
         4        28     1
         5         8     1
         5        14     1
         5        31     1
         6        11     1
         6        13     1
         6        15     1
         6        27     1
         7         8     1
         7        10     1
         7        12     1
         7        30     1
         8        11     1
         8        27     1
         9        30     1
        10        28     1
        11        29     1
        12        16     1
        12        20     1
        12        27     1
        12        32     1
        13        17     1
        13        19     1
        13        21     1
        13        60     1
        13        61     1
        13        68     1
        14        15     1
        14        18     1
        14        22     1
        14        33     1
        14        55     1
        14        56     1
        14        58     1
        14        59     1
        15        31     1
        16        19     1
        16        23     1
        16        24     1
        16        31     1
        16        50     1
        16        57     1
        16        60     1
        16        61     1
        17        20     1
        17        22     1
        17        32     1
        17        33     1
        17        51     1
        17        52     1
        17        58     1
        17        59     1
        18        21     1
        18        53     1
        18        54     1
        18        60     1
        18        61     1
        18        68     1
        19        32     1
        19        51     1
        19        52     1
        19        55     1
        19        56     1
        20        21     1
        20        31     1
        20        50     1
        20        57     1
        20        68     1
        21        25     1
        21        26     1
        21        32     1
        21        55     1
        21        56     1
        22        34     1
        22        35     1
        22        68     1
        23        33     1
        23        36     1
        23        39     1
        24        25     1
        24        26     1
        24        33     1
        25        36     1
        25        38     1
        25        45     1
        25        46     1
        26        37     1
        26        39     1
        26        41     1
        26        42     1
        28        29     1
        31        32     1
        32        60     1
        32        61     1
        32        68     1
        33        68     1
        34        37     1
        34        41     1
        34        42     1
        34        43     1
        34        44     1
        35        38     1
        35        40     1
        35        45     1
        35        46     1
        36        39     1
        36        43     1
        36        44     1
        36        47     1
        36        48     1
        36        49     1
        37        45     1
        37        46     1
        38        41     1
        38        42     1
        38        47     1
        38        48     1
        38        49     1
        39        40     1
        40        41     1
        40        42     1
        40        43     1
        40        44     1
        43        45     1
        43        46     1
        44        45     1
        44        46     1
        50        55     1
        50        56     1
        50        58     1
        50        59     1
        50        62     1
        50        63     1
        50        64     1
        50        65     1
        50        66     1
        50        67     1
        51        53     1
        51        54     1
        51        57     1
        52        57     1
        53        65     1
        53        66     1
        53        67     1
        54        62     1
        54        63     1
        54        64     1
        55        57     1
        55        68     1
        56        57     1
        56        68     1
        57        58     1
        57        59     1
        58        60     1
        58        61     1
        59        60     1
        59        61     1
