; ITP file created by ByteFF-joint-25, 2025-07-14 11:37:42.821921

[ atomtypes ]
;name           bonded.type        at.num        mass        charge   ptype           sigma         epsilon
 c0bf                                   6      0.0000       0.00000       A     3.31523e-01     4.13304e-01    ;  uncertainty sigma = 0.000005, epsilon = 0.001051
 cl1bf                                 17      0.0000       0.00000       A     3.46607e-01     1.10412e+00    ;  uncertainty sigma = 0.000014, epsilon = 0.000714
 c2bf                                   6      0.0000       0.00000       A     3.31545e-01     4.13408e-01    ;  uncertainty sigma = 0.000016, epsilon = 0.000436
 n3bf                                   7      0.0000       0.00000       A     3.20672e-01     8.53390e-01    ;  uncertainty sigma = 0.000055, epsilon = 0.005987
 c4bf                                   6      0.0000       0.00000       A     3.31681e-01     4.11353e-01    ;  uncertainty sigma = 0.000025, epsilon = 0.001883
 c5bf                                   6      0.0000       0.00000       A     3.31521e-01     4.13390e-01    ;  uncertainty sigma = 0.000014, epsilon = 0.001415
 c6bf                                   6      0.0000       0.00000       A     3.31524e-01     4.13445e-01    ;  uncertainty sigma = 0.000018, epsilon = 0.000868
 c7bf                                   6      0.0000       0.00000       A     3.31528e-01     4.12987e-01    ;  uncertainty sigma = 0.000004, epsilon = 0.000591
 c8bf                                   6      0.0000       0.00000       A     3.31529e-01     4.13386e-01    ;  uncertainty sigma = 0.000005, epsilon = 0.000705
 c9bf                                   6      0.0000       0.00000       A     3.31533e-01     4.13173e-01    ;  uncertainty sigma = 0.000002, epsilon = 0.000447
 c10bf                                  6      0.0000       0.00000       A     3.31529e-01     4.13142e-01    ;  uncertainty sigma = 0.000006, epsilon = 0.000577
 c11bf                                  6      0.0000       0.00000       A     3.31523e-01     4.12787e-01    ;  uncertainty sigma = 0.000024, epsilon = 0.000831
 n12bf                                  7      0.0000       0.00000       A     3.27042e-01     4.89031e-01    ;  uncertainty sigma = 0.000032, epsilon = 0.001076
 c13bf                                  6      0.0000       0.00000       A     3.39789e-01     4.50800e-01    ;  uncertainty sigma = 0.000020, epsilon = 0.000925
 o14bf                                  8      0.0000       0.00000       A     3.04840e-01     6.12989e-01    ;  uncertainty sigma = 0.000027, epsilon = 0.001536
 c15bf                                  6      0.0000       0.00000       A     3.39779e-01     4.50691e-01    ;  uncertainty sigma = 0.000021, epsilon = 0.001068
 c16bf                                  6      0.0000       0.00000       A     3.39785e-01     4.51177e-01    ;  uncertainty sigma = 0.000013, epsilon = 0.000568
 c17bf                                  6      0.0000       0.00000       A     3.39788e-01     4.50813e-01    ;  uncertainty sigma = 0.000005, epsilon = 0.001015
 c18bf                                  6      0.0000       0.00000       A     3.39784e-01     4.51089e-01    ;  uncertainty sigma = 0.000005, epsilon = 0.000646
 c19bf                                  6      0.0000       0.00000       A     3.39763e-01     4.50994e-01    ;  uncertainty sigma = 0.000009, epsilon = 0.000666
 n20bf                                  7      0.0000       0.00000       A     3.27037e-01     4.89849e-01    ;  uncertainty sigma = 0.000029, epsilon = 0.003194
 c21bf                                  6      0.0000       0.00000       A     3.31529e-01     4.12690e-01    ;  uncertainty sigma = 0.000018, epsilon = 0.001128
 c22bf                                  6      0.0000       0.00000       A     3.31525e-01     4.13652e-01    ;  uncertainty sigma = 0.000013, epsilon = 0.001225
 o23bf                                  8      0.0000       0.00000       A     3.04890e-01     6.12219e-01    ;  uncertainty sigma = 0.000024, epsilon = 0.000874
 n24bf                                  7      0.0000       0.00000       A     3.38354e-01     3.93161e-01    ;  uncertainty sigma = 0.000020, epsilon = 0.001245
 s25bf                                 16      0.0000       0.00000       A     3.53288e-01     1.18179e+00    ;  uncertainty sigma = 0.000032, epsilon = 0.002346
 o26bf                                  8      0.0000       0.00000       A     3.04838e-01     6.11740e-01    ;  uncertainty sigma = 0.000016, epsilon = 0.001357
 h27bf                                  1      0.0000       0.00000       A     2.62543e-01     6.69474e-02    ;  uncertainty sigma = 0.000010, epsilon = 0.000565
 h28bf                                  1      0.0000       0.00000       A     2.62554e-01     6.70235e-02    ;  uncertainty sigma = 0.000011, epsilon = 0.000687
 h29bf                                  1      0.0000       0.00000       A     2.62589e-01     6.69303e-02    ;  uncertainty sigma = 0.000010, epsilon = 0.000595
 h30bf                                  1      0.0000       0.00000       A     1.10671e-01     4.15432e-02    ;  uncertainty sigma = 0.000099, epsilon = 0.000844
 h31bf                                  1      0.0000       0.00000       A     2.42165e-01     8.67649e-02    ;  uncertainty sigma = 0.000033, epsilon = 0.001355
 h32bf                                  1      0.0000       0.00000       A     1.10666e-01     4.15404e-02    ;  uncertainty sigma = 0.000113, epsilon = 0.000907
 c33bf                                  6      0.0000       0.00000       A     3.31531e-01     4.13284e-01    ;  uncertainty sigma = 0.000022, epsilon = 0.000692
 c34bf                                  6      0.0000       0.00000       A     3.31510e-01     4.13232e-01    ;  uncertainty sigma = 0.000021, epsilon = 0.000971
 c35bf                                  6      0.0000       0.00000       A     3.39772e-01     4.51291e-01    ;  uncertainty sigma = 0.000007, epsilon = 0.001369
 n36bf                                  7      0.0000       0.00000       A     3.36491e-01     3.58344e-01    ;  uncertainty sigma = 0.000019, epsilon = 0.001758
 c37bf                                  6      0.0000       0.00000       A     3.39770e-01     4.51225e-01    ;  uncertainty sigma = 0.000009, epsilon = 0.000671
 c38bf                                  6      0.0000       0.00000       A     3.39762e-01     4.51164e-01    ;  uncertainty sigma = 0.000008, epsilon = 0.001424
 c39bf                                  6      0.0000       0.00000       A     3.39770e-01     4.51318e-01    ;  uncertainty sigma = 0.000003, epsilon = 0.000740
 h40bf                                  1      0.0000       0.00000       A     2.42250e-01     8.62902e-02    ;  uncertainty sigma = 0.000037, epsilon = 0.000964
 h41bf                                  1      0.0000       0.00000       A     2.42250e-01     8.62902e-02    ;  uncertainty sigma = 0.000037, epsilon = 0.000964
 h42bf                                  1      0.0000       0.00000       A     2.42218e-01     8.69005e-02    ;  uncertainty sigma = 0.000021, epsilon = 0.000739
 h43bf                                  1      0.0000       0.00000       A     2.42218e-01     8.69005e-02    ;  uncertainty sigma = 0.000021, epsilon = 0.000739
 h44bf                                  1      0.0000       0.00000       A     2.60015e-01     8.68230e-02    ;  uncertainty sigma = 0.000020, epsilon = 0.000739
 h45bf                                  1      0.0000       0.00000       A     2.60015e-01     8.68230e-02    ;  uncertainty sigma = 0.000020, epsilon = 0.000739
 h46bf                                  1      0.0000       0.00000       A     2.42198e-01     8.68693e-02    ;  uncertainty sigma = 0.000014, epsilon = 0.000543
 h47bf                                  1      0.0000       0.00000       A     2.42198e-01     8.68693e-02    ;  uncertainty sigma = 0.000014, epsilon = 0.000543
 h48bf                                  1      0.0000       0.00000       A     2.42198e-01     8.68693e-02    ;  uncertainty sigma = 0.000014, epsilon = 0.000543
 c49bf                                  6      0.0000       0.00000       A     3.31545e-01     4.13066e-01    ;  uncertainty sigma = 0.000011, epsilon = 0.001034
 o50bf                                  8      0.0000       0.00000       A     3.04819e-01     6.12467e-01    ;  uncertainty sigma = 0.000013, epsilon = 0.000996
 n51bf                                  7      0.0000       0.00000       A     3.18136e-01     6.84509e-01    ;  uncertainty sigma = 0.000019, epsilon = 0.001339
 c52bf                                  6      0.0000       0.00000       A     3.39777e-01     4.50876e-01    ;  uncertainty sigma = 0.000006, epsilon = 0.000504
 c53bf                                  6      0.0000       0.00000       A     3.39777e-01     4.50876e-01    ;  uncertainty sigma = 0.000006, epsilon = 0.000504
 h54bf                                  1      0.0000       0.00000       A     2.60016e-01     8.65219e-02    ;  uncertainty sigma = 0.000021, epsilon = 0.000613
 h55bf                                  1      0.0000       0.00000       A     2.60016e-01     8.65219e-02    ;  uncertainty sigma = 0.000021, epsilon = 0.000613
 h56bf                                  1      0.0000       0.00000       A     2.60030e-01     8.70270e-02    ;  uncertainty sigma = 0.000011, epsilon = 0.000538
 h57bf                                  1      0.0000       0.00000       A     2.60020e-01     8.66352e-02    ;  uncertainty sigma = 0.000016, epsilon = 0.000625
 h58bf                                  1      0.0000       0.00000       A     2.60020e-01     8.66352e-02    ;  uncertainty sigma = 0.000016, epsilon = 0.000625
 h59bf                                  1      0.0000       0.00000       A     2.60024e-01     8.67210e-02    ;  uncertainty sigma = 0.000008, epsilon = 0.000629
 h60bf                                  1      0.0000       0.00000       A     2.60024e-01     8.67210e-02    ;  uncertainty sigma = 0.000008, epsilon = 0.000629
 h61bf                                  1      0.0000       0.00000       A     2.42196e-01     8.67627e-02    ;  uncertainty sigma = 0.000011, epsilon = 0.000510
 h62bf                                  1      0.0000       0.00000       A     2.42196e-01     8.67627e-02    ;  uncertainty sigma = 0.000011, epsilon = 0.000510
 h63bf                                  1      0.0000       0.00000       A     2.42196e-01     8.67627e-02    ;  uncertainty sigma = 0.000011, epsilon = 0.000510
 h64bf                                  1      0.0000       0.00000       A     2.42196e-01     8.67627e-02    ;  uncertainty sigma = 0.000011, epsilon = 0.000510
 h65bf                                  1      0.0000       0.00000       A     2.42196e-01     8.67627e-02    ;  uncertainty sigma = 0.000011, epsilon = 0.000510
 h66bf                                  1      0.0000       0.00000       A     2.42196e-01     8.67627e-02    ;  uncertainty sigma = 0.000011, epsilon = 0.000510
 h67bf                                  1      0.0000       0.00000       A     2.42143e-01     8.68216e-02    ;  uncertainty sigma = 0.000035, epsilon = 0.001353
 h68bf                                  1      0.0000       0.00000       A     1.10724e-01     4.07091e-02    ;  uncertainty sigma = 0.000039, epsilon = 0.001415
 h69bf                                  1      0.0000       0.00000       A     2.62645e-01     6.74007e-02    ;  uncertainty sigma = 0.000056, epsilon = 0.001093

[ moleculetype ]
;name             nrexcl
 MOL                   3

[ atoms ]
;       nr            type      resi   res      atom      cgnr      charge          mass ; qtot
         1            c0bf         1   UNL        c0         1    -0.20897       12.0110 ; qtot   -0.209
         2           cl1bf         1   UNL       cl1         2    -0.11222       35.4530 ; qtot   -0.321
         3            c2bf         1   UNL        c2         3     0.18712       12.0110 ; qtot   -0.134
         4            n3bf         1   UNL        n3         4    -0.60445       14.0070 ; qtot   -0.739
         5            c4bf         1   UNL        c4         5     0.10008       12.0110 ; qtot   -0.638
         6            c5bf         1   UNL        c5         6    -0.28254       12.0110 ; qtot   -0.921
         7            c6bf         1   UNL        c6         7     0.59146       12.0110 ; qtot   -0.330
         8            c7bf         1   UNL        c7         8    -0.18063       12.0110 ; qtot   -0.510
         9            c8bf         1   UNL        c8         9    -0.06251       12.0110 ; qtot   -0.573
        10            c9bf         1   UNL        c9        10    -0.01191       12.0110 ; qtot   -0.585
        11           c10bf         1   UNL       c10        11    -0.03137       12.0110 ; qtot   -0.616
        12           c11bf         1   UNL       c11        12     0.66681       12.0110 ; qtot    0.051
        13           n12bf         1   UNL       n12        13    -0.55394       14.0070 ; qtot   -0.503
        14           c13bf         1   UNL       c13        14     0.09797       12.0110 ; qtot   -0.405
        15           o14bf         1   UNL       o14        15    -0.58767       15.9990 ; qtot   -0.993
        16           c15bf         1   UNL       c15        16     0.10493       12.0110 ; qtot   -0.888
        17           c16bf         1   UNL       c16        17    -0.07517       12.0110 ; qtot   -0.963
        18           c17bf         1   UNL       c17        18    -0.13250       12.0110 ; qtot   -1.096
        19           c18bf         1   UNL       c18        19    -0.06578       12.0110 ; qtot   -1.161
        20           c19bf         1   UNL       c19        20    -0.08734       12.0110 ; qtot   -1.249
        21           n20bf         1   UNL       n20        21    -0.55641       14.0070 ; qtot   -1.805
        22           c21bf         1   UNL       c21        22     0.59414       12.0110 ; qtot   -1.211
        23           c22bf         1   UNL       c22        23     0.37509       12.0110 ; qtot   -0.836
        24           o23bf         1   UNL       o23        24    -0.57698       15.9990 ; qtot   -1.413
        25           n24bf         1   UNL       n24        25    -0.60853       14.0070 ; qtot   -2.021
        26           s25bf         1   UNL       s25        26    -0.11954       32.0670 ; qtot   -2.141
        27           o26bf         1   UNL       o26        27    -0.54615       15.9990 ; qtot   -2.687
        28           h27bf         1   UNL       h27        28     0.14111        1.0080 ; qtot   -2.546
        29           h28bf         1   UNL       h28        29     0.15540        1.0080 ; qtot   -2.391
        30           h29bf         1   UNL       h29        30     0.17454        1.0080 ; qtot   -2.216
        31           h30bf         1   UNL       h30        31     0.32562        1.0080 ; qtot   -1.890
        32           h31bf         1   UNL       h31        32     0.07740        1.0080 ; qtot   -1.813
        33           h32bf         1   UNL       h32        33     0.33735        1.0080 ; qtot   -1.476
        34           c33bf         1   UNL       c33        34     0.34886       12.0110 ; qtot   -1.127
        35           c34bf         1   UNL       c34        35    -0.15290       12.0110 ; qtot   -1.280
        36           c35bf         1   UNL       c35        36     0.24342       12.0110 ; qtot   -1.036
        37           n36bf         1   UNL       n36        37    -0.71265       14.0070 ; qtot   -1.749
        38           c37bf         1   UNL       c37        38     0.15896       12.0110 ; qtot   -1.590
        39           c38bf         1   UNL       c38        39    -0.11292       12.0110 ; qtot   -1.703
        40           c39bf         1   UNL       c39        40     0.14692       12.0110 ; qtot   -1.556
        41           h40bf         1   UNL       h40        41     0.05218        1.0080 ; qtot   -1.504
        42           h41bf         1   UNL       h41        42     0.05218        1.0080 ; qtot   -1.452
        43           h42bf         1   UNL       h42        43     0.04542        1.0080 ; qtot   -1.406
        44           h43bf         1   UNL       h43        44     0.04542        1.0080 ; qtot   -1.361
        45           h44bf         1   UNL       h44        45     0.06419        1.0080 ; qtot   -1.297
        46           h45bf         1   UNL       h45        46     0.06419        1.0080 ; qtot   -1.232
        47           h46bf         1   UNL       h46        47     0.03530        1.0080 ; qtot   -1.197
        48           h47bf         1   UNL       h47        48     0.03530        1.0080 ; qtot   -1.162
        49           h48bf         1   UNL       h48        49     0.03530        1.0080 ; qtot   -1.126
        50           c49bf         1   UNL       c49        50     0.67193       12.0110 ; qtot   -0.454
        51           o50bf         1   UNL       o50        51    -0.60797       15.9990 ; qtot   -1.062
        52           n51bf         1   UNL       n51        52    -0.49029       14.0070 ; qtot   -1.553
        53           c52bf         1   UNL       c52        53     0.08466       12.0110 ; qtot   -1.468
        54           c53bf         1   UNL       c53        54     0.08466       12.0110 ; qtot   -1.383
        55           h54bf         1   UNL       h54        55     0.06150        1.0080 ; qtot   -1.322
        56           h55bf         1   UNL       h55        56     0.06150        1.0080 ; qtot   -1.260
        57           h56bf         1   UNL       h56        57     0.06422        1.0080 ; qtot   -1.196
        58           h57bf         1   UNL       h57        58     0.05208        1.0080 ; qtot   -1.144
        59           h58bf         1   UNL       h58        59     0.05208        1.0080 ; qtot   -1.092
        60           h59bf         1   UNL       h59        60     0.05522        1.0080 ; qtot   -1.037
        61           h60bf         1   UNL       h60        61     0.05522        1.0080 ; qtot   -0.982
        62           h61bf         1   UNL       h61        62     0.04383        1.0080 ; qtot   -0.938
        63           h62bf         1   UNL       h62        63     0.04383        1.0080 ; qtot   -0.894
        64           h63bf         1   UNL       h63        64     0.04383        1.0080 ; qtot   -0.850
        65           h64bf         1   UNL       h64        65     0.04383        1.0080 ; qtot   -0.806
        66           h65bf         1   UNL       h65        66     0.04383        1.0080 ; qtot   -0.762
        67           h66bf         1   UNL       h66        67     0.04383        1.0080 ; qtot   -0.719
        68           h67bf         1   UNL       h67        68     0.07881        1.0080 ; qtot   -0.640
        69           h68bf         1   UNL       h68        69     0.46756        1.0080 ; qtot   -0.172
        70           h69bf         1   UNL       h69        70     0.17226        1.0080 ; qtot   -0.000

[ bonds ]
;       ai        aj funct               r               k
         1         3     1        0.141241   345478.528809    ;  uncertainty r = 0.000092, k = 9.646702
         1         7     1        0.148395   240919.643555    ;  uncertainty r = 0.000131, k = 11.663072
         1        11     1        0.140157   364127.871191    ;  uncertainty r = 0.000041, k = 9.794463
         2        10     1        0.175717   197248.913721    ;  uncertainty r = 0.000075, k = 5.920477
         3         4     1        0.138581   300041.473730    ;  uncertainty r = 0.000161, k = 22.174963
         3         8     1        0.140829   354319.629297    ;  uncertainty r = 0.000058, k = 5.118184
         4         5     1        0.136880   308824.962500    ;  uncertainty r = 0.000073, k = 22.294660
         4        69     1        0.101426   411956.731934    ;  uncertainty r = 0.000123, k = 4.159757
         5         6     1        0.136316   397278.690967    ;  uncertainty r = 0.000089, k = 18.983353
         5        12     1        0.150518   237896.100879    ;  uncertainty r = 0.000280, k = 30.067976
         6         7     1        0.146466   296114.938867    ;  uncertainty r = 0.000109, k = 14.171877
         6        70     1        0.108564   343459.896924    ;  uncertainty r = 0.000055, k = 3.024138
         7        27     1        0.124094   759494.981836    ;  uncertainty r = 0.000120, k = 8.099241
         8         9     1        0.138536   382435.169531    ;  uncertainty r = 0.000071, k = 4.242877
         8        28     1        0.108859   337185.965430    ;  uncertainty r = 0.000043, k = 1.636531
         9        10     1        0.140391   352427.482715    ;  uncertainty r = 0.000094, k = 4.493857
         9        29     1        0.108645   335235.696387    ;  uncertainty r = 0.000009, k = 0.842480
        10        11     1        0.138609   352618.781201    ;  uncertainty r = 0.000045, k = 9.623634
        11        30     1        0.108548   331734.865137    ;  uncertainty r = 0.000013, k = 0.709668
        12        13     1        0.136451   275608.588965    ;  uncertainty r = 0.000165, k = 14.841501
        12        15     1        0.123808   757635.114160    ;  uncertainty r = 0.000202, k = 17.222405
        13        14     1        0.145952   241972.615186    ;  uncertainty r = 0.000073, k = 11.018340
        13        31     1        0.101519   411903.563672    ;  uncertainty r = 0.000053, k = 3.790789
        14        16     1        0.154163   193154.191455    ;  uncertainty r = 0.000237, k = 6.997691
        14        20     1        0.153518   200172.708447    ;  uncertainty r = 0.000086, k = 6.949998
        14        32     1        0.109368   306120.812451    ;  uncertainty r = 0.000049, k = 3.101294
        16        17     1        0.153461   198493.451978    ;  uncertainty r = 0.000128, k = 5.281574
        16        21     1        0.145732   238691.326465    ;  uncertainty r = 0.000068, k = 15.691022
        16        68     1        0.109360   306494.828955    ;  uncertainty r = 0.000054, k = 3.368977
        17        18     1        0.153721   199006.850024    ;  uncertainty r = 0.000168, k = 6.848027
        17        55     1        0.109526   310433.851465    ;  uncertainty r = 0.000043, k = 0.875064
        17        56     1        0.109526   310433.851465    ;  uncertainty r = 0.000043, k = 0.875064
        18        19     1        0.153975   202217.337109    ;  uncertainty r = 0.000087, k = 2.573046
        18        50     1        0.153156   206143.680444    ;  uncertainty r = 0.000070, k = 12.443492
        18        57     1        0.109633   309151.735352    ;  uncertainty r = 0.000051, k = 6.503762
        19        20     1        0.153317   207892.474463    ;  uncertainty r = 0.000061, k = 5.382321
        19        58     1        0.109602   308125.501074    ;  uncertainty r = 0.000021, k = 1.819146
        19        59     1        0.109602   308125.501074    ;  uncertainty r = 0.000021, k = 1.819146
        20        60     1        0.109620   309930.898096    ;  uncertainty r = 0.000025, k = 1.029525
        20        61     1        0.109620   309930.898096    ;  uncertainty r = 0.000025, k = 1.029525
        21        22     1        0.136254   291452.475586    ;  uncertainty r = 0.000129, k = 17.867731
        21        33     1        0.101616   410581.507520    ;  uncertainty r = 0.000093, k = 3.750123
        22        23     1        0.147883   259563.418848    ;  uncertainty r = 0.000125, k = 27.680344
        22        24     1        0.123538   703630.001367    ;  uncertainty r = 0.000115, k = 12.098945
        23        25     1        0.130310   434161.095312    ;  uncertainty r = 0.000085, k = 15.053236
        23        26     1        0.175563   155788.944214    ;  uncertainty r = 0.000188, k = 10.470577
        25        34     1        0.137602   299978.345996    ;  uncertainty r = 0.000211, k = 8.739575
        26        35     1        0.173396   184345.625244    ;  uncertainty r = 0.000110, k = 8.530767
        34        35     1        0.137286   397473.794482    ;  uncertainty r = 0.000034, k = 9.608965
        34        39     1        0.149948   244144.622949    ;  uncertainty r = 0.000108, k = 7.193396
        35        36     1        0.150719   237383.826465    ;  uncertainty r = 0.000089, k = 11.691948
        36        37     1        0.146397   258698.068359    ;  uncertainty r = 0.000045, k = 12.802743
        36        41     1        0.110180   303656.992139    ;  uncertainty r = 0.000048, k = 3.959665
        36        42     1        0.110180   303656.992139    ;  uncertainty r = 0.000048, k = 3.959665
        37        38     1        0.146774   246527.975830    ;  uncertainty r = 0.000088, k = 8.191406
        37        40     1        0.145874   240551.449512    ;  uncertainty r = 0.000055, k = 4.989744
        38        39     1        0.153862   211171.503149    ;  uncertainty r = 0.000061, k = 10.297044
        38        43     1        0.109933   305388.127246    ;  uncertainty r = 0.000023, k = 3.768152
        38        44     1        0.109933   305388.127246    ;  uncertainty r = 0.000023, k = 3.768152
        39        45     1        0.109729   310887.467139    ;  uncertainty r = 0.000009, k = 2.383701
        39        46     1        0.109729   310887.467139    ;  uncertainty r = 0.000009, k = 2.383701
        40        47     1        0.109858   306972.960254    ;  uncertainty r = 0.000009, k = 1.032628
        40        48     1        0.109858   306972.960254    ;  uncertainty r = 0.000009, k = 1.032628
        40        49     1        0.109858   306972.960254    ;  uncertainty r = 0.000009, k = 1.032628
        50        51     1        0.123614   736987.492969    ;  uncertainty r = 0.000035, k = 11.451192
        50        52     1        0.137582   365085.512793    ;  uncertainty r = 0.000056, k = 20.353976
        52        53     1        0.145904   250764.582275    ;  uncertainty r = 0.000013, k = 6.211512
        52        54     1        0.145904   250764.582275    ;  uncertainty r = 0.000013, k = 6.211512
        53        62     1        0.109437   311080.731982    ;  uncertainty r = 0.000014, k = 1.257584
        53        63     1        0.109437   311080.731982    ;  uncertainty r = 0.000014, k = 1.257584
        53        64     1        0.109437   311080.731982    ;  uncertainty r = 0.000014, k = 1.257584
        54        65     1        0.109437   311080.731982    ;  uncertainty r = 0.000014, k = 1.257584
        54        66     1        0.109437   311080.731982    ;  uncertainty r = 0.000014, k = 1.257590
        54        67     1        0.109437   311080.680908    ;  uncertainty r = 0.000014, k = 1.257584

[ angles ]
;       ai        aj        ak funct           theta             cth
         1         3         4     1      119.112228      547.230567    ;  uncertainty theta = 0.003227, k = 0.418286
         1         3         8     1      121.185936      391.564584    ;  uncertainty theta = 0.006874, k = 0.125064
         1         7         6     1      112.021423      352.824374    ;  uncertainty theta = 0.009976, k = 0.342193
         1         7        27     1      123.858231      569.561939    ;  uncertainty theta = 0.002603, k = 0.155760
         1        11        10     1      120.446289      485.048695    ;  uncertainty theta = 0.002352, k = 0.199529
         1        11        30     1      119.116257      246.734443    ;  uncertainty theta = 0.003423, k = 0.086599
         2        10         9     1      119.950645      451.359789    ;  uncertainty theta = 0.001288, k = 0.112296
         2        10        11     1      120.313919      434.393445    ;  uncertainty theta = 0.001527, k = 0.074511
         3         1         7     1      118.588318      454.856267    ;  uncertainty theta = 0.003942, k = 0.179876
         3         1        11     1      119.740051      446.056753    ;  uncertainty theta = 0.004682, k = 0.124542
         3         4         5     1      117.618576      503.731549    ;  uncertainty theta = 0.006912, k = 0.349759
         3         4        69     1      113.609474      329.652320    ;  uncertainty theta = 0.002822, k = 0.234129
         3         8         9     1      119.735550      506.326119    ;  uncertainty theta = 0.002345, k = 0.115650
         3         8        28     1      120.017807      283.344124    ;  uncertainty theta = 0.001589, k = 0.064227
         4         3         8     1      121.575378      537.710460    ;  uncertainty theta = 0.001672, k = 0.278711
         4         5         6     1      124.973999      535.768299    ;  uncertainty theta = 0.007244, k = 0.294591
         4         5        12     1      113.793701      379.966331    ;  uncertainty theta = 0.010119, k = 0.241823
         5         4        69     1      114.952225      321.346567    ;  uncertainty theta = 0.005892, k = 0.171569
         5         6         7     1      122.134995      535.860297    ;  uncertainty theta = 0.005173, k = 0.131464
         5         6        70     1      119.611328      266.237230    ;  uncertainty theta = 0.002589, k = 0.273669
         5        12        13     1      115.132980      424.095382    ;  uncertainty theta = 0.005936, k = 0.299328
         5        12        15     1      123.276535      485.285967    ;  uncertainty theta = 0.004231, k = 0.114254
         6         5        12     1      123.912743      324.926487    ;  uncertainty theta = 0.007703, k = 0.159312
         6         7        27     1      124.527542      599.169025    ;  uncertainty theta = 0.003141, k = 0.087051
         7         1        11     1      119.551651      386.065008    ;  uncertainty theta = 0.005373, k = 0.101355
         7         6        70     1      119.256653      264.656179    ;  uncertainty theta = 0.003583, k = 0.098911
         8         9        10     1      119.523170      510.109793    ;  uncertainty theta = 0.003087, k = 0.061943
         8         9        29     1      119.936607      280.889242    ;  uncertainty theta = 0.002556, k = 0.044045
         9         8        28     1      120.562538      288.746627    ;  uncertainty theta = 0.002786, k = 0.064172
         9        10        11     1      121.705582      386.617791    ;  uncertainty theta = 0.001125, k = 0.140708
        10         9        29     1      120.874832      286.296725    ;  uncertainty theta = 0.002277, k = 0.036077
        10        11        30     1      121.798218      279.661769    ;  uncertainty theta = 0.003152, k = 0.070294
        12        13        14     1      116.454857      439.022908    ;  uncertainty theta = 0.004910, k = 0.127939
        12        13        31     1      115.724953      354.361102    ;  uncertainty theta = 0.003187, k = 0.213404
        13        12        15     1      124.575821      799.425164    ;  uncertainty theta = 0.000942, k = 0.082798
        13        14        16     1      109.140282      584.150971    ;  uncertainty theta = 0.003402, k = 0.168596
        13        14        20     1      110.897423      636.848392    ;  uncertainty theta = 0.001864, k = 0.044186
        13        14        32     1      105.169899      444.493148    ;  uncertainty theta = 0.003379, k = 0.185308
        14        13        31     1      112.951012      327.523323    ;  uncertainty theta = 0.002194, k = 0.217873
        14        16        17     1      109.656967      543.291404    ;  uncertainty theta = 0.003196, k = 0.182204
        14        16        21     1      109.146683      584.442413    ;  uncertainty theta = 0.004622, k = 0.173858
        14        16        68     1      107.717239      383.850653    ;  uncertainty theta = 0.001765, k = 0.083403
        14        20        19     1      109.780396      550.449520    ;  uncertainty theta = 0.003491, k = 0.116853
        14        20        60     1      107.481422      382.863197    ;  uncertainty theta = 0.000870, k = 0.034003
        14        20        61     1      107.481422      382.863197    ;  uncertainty theta = 0.000870, k = 0.034003
        16        14        20     1      109.386574      551.865233    ;  uncertainty theta = 0.000986, k = 0.237382
        16        14        32     1      107.472862      382.095998    ;  uncertainty theta = 0.002525, k = 0.088543
        16        17        18     1      110.158470      537.237002    ;  uncertainty theta = 0.003364, k = 0.118913
        16        17        55     1      107.462036      385.087415    ;  uncertainty theta = 0.000668, k = 0.059043
        16        17        56     1      107.462036      385.087415    ;  uncertainty theta = 0.000668, k = 0.059043
        16        21        22     1      116.259842      438.599854    ;  uncertainty theta = 0.006695, k = 0.183209
        16        21        33     1      112.698265      315.764027    ;  uncertainty theta = 0.001508, k = 0.296876
        17        16        21     1      110.222816      630.153200    ;  uncertainty theta = 0.002135, k = 0.087453
        17        16        68     1      108.603882      408.571724    ;  uncertainty theta = 0.001775, k = 0.034676
        17        18        19     1      109.900391      583.567575    ;  uncertainty theta = 0.002330, k = 0.083135
        17        18        50     1      108.569168      489.144113    ;  uncertainty theta = 0.003757, k = 0.073146
        17        18        57     1      107.332260      401.082169    ;  uncertainty theta = 0.002516, k = 0.077903
        18        17        55     1      108.676857      396.198101    ;  uncertainty theta = 0.000795, k = 0.026396
        18        17        56     1      108.676857      396.198101    ;  uncertainty theta = 0.000795, k = 0.026396
        18        19        20     1      109.789757      580.826741    ;  uncertainty theta = 0.001891, k = 0.142184
        18        19        58     1      108.292625      386.614311    ;  uncertainty theta = 0.000735, k = 0.019139
        18        19        59     1      108.292625      386.614311    ;  uncertainty theta = 0.000735, k = 0.019139
        18        50        51     1      123.648819      547.647652    ;  uncertainty theta = 0.003749, k = 0.250532
        18        50        52     1      114.135170      399.306701    ;  uncertainty theta = 0.002339, k = 0.216014
        19        18        50     1      108.943726      496.415422    ;  uncertainty theta = 0.001979, k = 0.055108
        19        18        57     1      107.694107      403.879791    ;  uncertainty theta = 0.001685, k = 0.082263
        19        20        60     1      108.762428      400.566224    ;  uncertainty theta = 0.001510, k = 0.036687
        19        20        61     1      108.762428      400.566224    ;  uncertainty theta = 0.001510, k = 0.036687
        20        14        32     1      108.912514      410.850975    ;  uncertainty theta = 0.001579, k = 0.068352
        20        19        58     1      108.482193      402.788750    ;  uncertainty theta = 0.000884, k = 0.036541
        20        19        59     1      108.482193      402.788750    ;  uncertainty theta = 0.000884, k = 0.036541
        21        16        68     1      105.245773      446.491842    ;  uncertainty theta = 0.004278, k = 0.178016
        21        22        23     1      113.070839      435.784547    ;  uncertainty theta = 0.006920, k = 0.140238
        21        22        24     1      124.950012      804.911939    ;  uncertainty theta = 0.003994, k = 0.055585
        22        21        33     1      116.250000      347.593576    ;  uncertainty theta = 0.004441, k = 0.081627
        22        23        25     1      122.197128      370.860213    ;  uncertainty theta = 0.005964, k = 0.255742
        22        23        26     1      118.123451      287.405674    ;  uncertainty theta = 0.005808, k = 0.204925
        23        22        24     1      120.002197      453.227350    ;  uncertainty theta = 0.007890, k = 0.121396
        23        25        34     1      111.845421      637.059456    ;  uncertainty theta = 0.004719, k = 0.108197
        23        26        35     1       89.170425     1132.634133    ;  uncertainty theta = 0.004755, k = 0.314956
        25        23        26     1      116.136452      646.965173    ;  uncertainty theta = 0.002239, k = 0.246117
        25        34        35     1      115.716957      690.992937    ;  uncertainty theta = 0.003156, k = 0.158093
        25        34        39     1      124.040390      433.932787    ;  uncertainty theta = 0.004363, k = 0.201750
        26        35        34     1      109.672325      507.238336    ;  uncertainty theta = 0.002750, k = 0.124654
        26        35        36     1      124.458923      318.004972    ;  uncertainty theta = 0.003631, k = 0.249957
        34        35        36     1      122.449425      322.713122    ;  uncertainty theta = 0.004108, k = 0.373686
        34        39        38     1      106.939438      596.797522    ;  uncertainty theta = 0.003584, k = 0.044131
        34        39        45     1      108.548073      392.911220    ;  uncertainty theta = 0.001454, k = 0.086868
        34        39        46     1      108.548073      392.911220    ;  uncertainty theta = 0.001454, k = 0.086868
        35        34        39     1      120.498146      325.489963    ;  uncertainty theta = 0.004995, k = 0.174544
        35        36        37     1      109.701111      686.046080    ;  uncertainty theta = 0.001850, k = 0.201796
        35        36        41     1      108.925659      409.463193    ;  uncertainty theta = 0.001395, k = 0.154098
        35        36        42     1      108.925659      409.463193    ;  uncertainty theta = 0.001395, k = 0.154098
        36        37        38     1      108.084244      491.834927    ;  uncertainty theta = 0.003315, k = 0.091086
        36        37        40     1      107.580322      510.743273    ;  uncertainty theta = 0.002764, k = 0.057722
        37        36        41     1      109.358154      448.409487    ;  uncertainty theta = 0.001850, k = 0.074310
        37        36        42     1      109.358154      448.409487    ;  uncertainty theta = 0.001850, k = 0.074310
        37        38        39     1      112.487526      700.788206    ;  uncertainty theta = 0.002677, k = 0.118016
        37        38        43     1      108.920166      453.721493    ;  uncertainty theta = 0.001526, k = 0.064884
        37        38        44     1      108.920166      453.721493    ;  uncertainty theta = 0.001526, k = 0.064884
        37        40        47     1      110.438461      450.024231    ;  uncertainty theta = 0.001821, k = 0.029766
        37        40        48     1      110.438461      450.024231    ;  uncertainty theta = 0.001821, k = 0.029766
        37        40        49     1      110.438461      450.024231    ;  uncertainty theta = 0.001821, k = 0.029766
        38        37        40     1      108.245483      523.945384    ;  uncertainty theta = 0.002945, k = 0.105030
        38        39        45     1      108.704140      394.566535    ;  uncertainty theta = 0.001154, k = 0.056791
        38        39        46     1      108.704140      394.566535    ;  uncertainty theta = 0.001154, k = 0.056791
        39        38        43     1      108.660522      413.983038    ;  uncertainty theta = 0.001451, k = 0.079858
        39        38        44     1      108.660522      413.983038    ;  uncertainty theta = 0.001451, k = 0.079858
        41        36        42     1      104.710770      316.430897    ;  uncertainty theta = 0.002647, k = 0.058044
        43        38        44     1      105.686386      320.062785    ;  uncertainty theta = 0.001993, k = 0.069558
        45        39        46     1      105.018166      307.701164    ;  uncertainty theta = 0.001306, k = 0.028790
        47        40        48     1      106.707680      321.292396    ;  uncertainty theta = 0.002211, k = 0.028957
        47        40        49     1      106.707680      321.292396    ;  uncertainty theta = 0.002211, k = 0.028957
        48        40        49     1      106.707680      321.292396    ;  uncertainty theta = 0.002211, k = 0.028957
        50        18        57     1      106.313622      362.200292    ;  uncertainty theta = 0.002423, k = 0.146630
        50        52        53     1      116.622971      385.561065    ;  uncertainty theta = 0.001770, k = 0.124804
        50        52        54     1      116.622971      385.561065    ;  uncertainty theta = 0.001770, k = 0.124804
        51        50        52     1      123.396584      724.695474    ;  uncertainty theta = 0.001503, k = 0.174408
        52        53        62     1      109.352982      479.364486    ;  uncertainty theta = 0.001224, k = 0.042687
        52        53        63     1      109.352982      479.364486    ;  uncertainty theta = 0.001224, k = 0.042687
        52        53        64     1      109.352982      479.364486    ;  uncertainty theta = 0.001224, k = 0.042687
        52        54        65     1      109.352982      479.364486    ;  uncertainty theta = 0.001224, k = 0.042687
        52        54        66     1      109.352982      479.364486    ;  uncertainty theta = 0.001224, k = 0.042687
        52        54        67     1      109.352982      479.364486    ;  uncertainty theta = 0.001224, k = 0.042687
        53        52        54     1      118.428368      428.731644    ;  uncertainty theta = 0.003391, k = 0.223109
        55        17        56     1      105.326035      326.596294    ;  uncertainty theta = 0.002223, k = 0.051835
        58        19        59     1      104.655197      318.642921    ;  uncertainty theta = 0.002537, k = 0.034949
        60        20        61     1      105.087135      316.700154    ;  uncertainty theta = 0.002326, k = 0.045638
        62        53        63     1      106.824196      329.099123    ;  uncertainty theta = 0.001131, k = 0.027019
        62        53        64     1      106.824196      329.099123    ;  uncertainty theta = 0.001131, k = 0.027019
        63        53        64     1      106.824196      329.099123    ;  uncertainty theta = 0.001131, k = 0.027019
        65        54        66     1      106.824196      329.099123    ;  uncertainty theta = 0.001131, k = 0.027019
        65        54        67     1      106.824196      329.099123    ;  uncertainty theta = 0.001131, k = 0.027019
        66        54        67     1      106.824196      329.099123    ;  uncertainty theta = 0.001131, k = 0.027019

[ dihedrals ] ; propers for gromacs 4.5 or higher, use funct 9
;       ai        aj        ak        al funct           phase               k        pn
         1         3         4         5     9        0.000000        0.694898         1    ;  uncertainty k = 1.407207
         1         3         4         5     9      180.000000        4.531924         2    ;  uncertainty k = 0.800224
         1         3         4         5     9        0.000000        0.594126         3    ;  uncertainty k = 0.568646
         1         3         4         5     9      180.000000        0.183849         4    ;  uncertainty k = 0.126544
         1         3         4        69     9        0.000000        3.897792         1    ;  uncertainty k = 1.836789
         1         3         4        69     9      180.000000        4.975680         2    ;  uncertainty k = 0.700388
         1         3         4        69     9        0.000000        1.014372         3    ;  uncertainty k = 0.377616
         1         3         4        69     9      180.000000        0.018365         4    ;  uncertainty k = 0.222997
         1         3         8         9     9        0.000000        0.016443         1    ;  uncertainty k = 0.423511
         1         3         8         9     9      180.000000        8.140134         2    ;  uncertainty k = 0.932876
         1         3         8         9     9        0.000000        0.157795         3    ;  uncertainty k = 0.183766
         1         3         8         9     9      180.000000        1.102363         4    ;  uncertainty k = 0.267556
         1         3         8        28     9        0.000000        0.106001         1    ;  uncertainty k = 0.758424
         1         3         8        28     9      180.000000        5.957228         2    ;  uncertainty k = 0.942157
         1         3         8        28     9        0.000000        1.274014         3    ;  uncertainty k = 0.333039
         1         3         8        28     9      180.000000        1.171137         4    ;  uncertainty k = 0.132299
         1         7         6         5     9        0.000000       -1.580426         1    ;  uncertainty k = 1.901713
         1         7         6         5     9      180.000000        1.589629         2    ;  uncertainty k = 0.651395
         1         7         6         5     9        0.000000        0.113189         3    ;  uncertainty k = 0.258399
         1         7         6         5     9      180.000000        0.219032         4    ;  uncertainty k = 0.108521
         1         7         6        70     9        0.000000       -1.874633         1    ;  uncertainty k = 0.994743
         1         7         6        70     9      180.000000        3.002825         2    ;  uncertainty k = 0.729149
         1         7         6        70     9        0.000000        0.367753         3    ;  uncertainty k = 0.327153
         1         7         6        70     9      180.000000        0.326123         4    ;  uncertainty k = 0.131692
         1        11        10         2     9        0.000000       -0.065062         1    ;  uncertainty k = 0.301074
         1        11        10         2     9      180.000000       10.346874         2    ;  uncertainty k = 0.354831
         1        11        10         2     9        0.000000        1.547958         3    ;  uncertainty k = 0.358722
         1        11        10         2     9      180.000000        1.567676         4    ;  uncertainty k = 0.125502
         1        11        10         9     9        0.000000       -0.153005         1    ;  uncertainty k = 0.408142
         1        11        10         9     9      180.000000        9.231027         2    ;  uncertainty k = 0.371800
         1        11        10         9     9        0.000000        0.225544         3    ;  uncertainty k = 0.472459
         1        11        10         9     9      180.000000        1.275940         4    ;  uncertainty k = 0.423658
         2        10         9         8     9        0.000000        0.123256         1    ;  uncertainty k = 0.201591
         2        10         9         8     9      180.000000        8.691141         2    ;  uncertainty k = 0.675249
         2        10         9         8     9        0.000000        1.460105         3    ;  uncertainty k = 0.523309
         2        10         9         8     9      180.000000        1.637453         4    ;  uncertainty k = 0.187702
         2        10         9        29     9        0.000000       -0.095703         1    ;  uncertainty k = 0.175705
         2        10         9        29     9      180.000000        7.154249         2    ;  uncertainty k = 0.260334
         2        10         9        29     9        0.000000        0.615906         3    ;  uncertainty k = 0.290421
         2        10         9        29     9      180.000000        0.930464         4    ;  uncertainty k = 0.141163
         2        10        11        30     9        0.000000       -0.186547         1    ;  uncertainty k = 0.428552
         2        10        11        30     9      180.000000        7.933132         2    ;  uncertainty k = 0.288543
         2        10        11        30     9        0.000000        0.795466         3    ;  uncertainty k = 0.244800
         2        10        11        30     9      180.000000        1.081875         4    ;  uncertainty k = 0.215808
         3         1         7         6     9        0.000000        0.705667         1    ;  uncertainty k = 0.919468
         3         1         7         6     9      180.000000        1.945328         2    ;  uncertainty k = 0.921533
         3         1         7         6     9        0.000000        0.328486         3    ;  uncertainty k = 0.328276
         3         1         7         6     9      180.000000        0.392408         4    ;  uncertainty k = 0.153747
         3         1         7        27     9        0.000000       -1.041595         1    ;  uncertainty k = 1.474067
         3         1         7        27     9      180.000000        4.395669         2    ;  uncertainty k = 0.679699
         3         1         7        27     9        0.000000        0.531648         3    ;  uncertainty k = 0.372958
         3         1         7        27     9      180.000000        0.057393         4    ;  uncertainty k = 0.105731
         3         1        11        10     9        0.000000        0.039625         1    ;  uncertainty k = 0.235963
         3         1        11        10     9      180.000000       11.316332         2    ;  uncertainty k = 0.377716
         3         1        11        10     9        0.000000       -0.212189         3    ;  uncertainty k = 0.310586
         3         1        11        10     9      180.000000        1.138357         4    ;  uncertainty k = 0.146497
         3         1        11        30     9        0.000000        0.348613         1    ;  uncertainty k = 0.650415
         3         1        11        30     9      180.000000        7.302515         2    ;  uncertainty k = 0.688311
         3         1        11        30     9        0.000000        1.381866         3    ;  uncertainty k = 0.289091
         3         1        11        30     9      180.000000        1.469549         4    ;  uncertainty k = 0.071618
         3         4         5         6     9        0.000000        0.697740         1    ;  uncertainty k = 1.089960
         3         4         5         6     9      180.000000        8.765469         2    ;  uncertainty k = 0.720858
         3         4         5         6     9        0.000000        0.042436         3    ;  uncertainty k = 0.543118
         3         4         5         6     9      180.000000        0.256262         4    ;  uncertainty k = 0.373385
         3         4         5        12     9        0.000000        1.695402         1    ;  uncertainty k = 1.791974
         3         4         5        12     9      180.000000        6.192770         2    ;  uncertainty k = 1.018955
         3         4         5        12     9        0.000000        1.705054         3    ;  uncertainty k = 0.442499
         3         4         5        12     9      180.000000        0.032698         4    ;  uncertainty k = 0.193497
         3         8         9        10     9        0.000000        0.107004         1    ;  uncertainty k = 0.259090
         3         8         9        10     9      180.000000       15.741311         2    ;  uncertainty k = 0.375603
         3         8         9        10     9        0.000000       -0.397985         3    ;  uncertainty k = 0.500103
         3         8         9        10     9      180.000000        0.838665         4    ;  uncertainty k = 0.363751
         3         8         9        29     9        0.000000        0.080920         1    ;  uncertainty k = 0.108443
         3         8         9        29     9      180.000000        9.398082         2    ;  uncertainty k = 0.227488
         3         8         9        29     9        0.000000        1.472197         3    ;  uncertainty k = 0.301096
         3         8         9        29     9      180.000000        1.638345         4    ;  uncertainty k = 0.099896
         4         3         1         7     9        0.000000        0.310163         1    ;  uncertainty k = 0.316910
         4         3         1         7     9      180.000000        8.637012         2    ;  uncertainty k = 0.474755
         4         3         1         7     9        0.000000        1.344908         3    ;  uncertainty k = 0.353941
         4         3         1         7     9      180.000000        1.520265         4    ;  uncertainty k = 0.147491
         4         3         1        11     9        0.000000        0.531599         1    ;  uncertainty k = 0.662974
         4         3         1        11     9      180.000000        9.291840         2    ;  uncertainty k = 0.108312
         4         3         1        11     9        0.000000        0.973707         3    ;  uncertainty k = 0.196620
         4         3         1        11     9      180.000000        1.404745         4    ;  uncertainty k = 0.163250
         4         3         8         9     9        0.000000        0.010488         1    ;  uncertainty k = 0.460987
         4         3         8         9     9      180.000000       12.000838         2    ;  uncertainty k = 0.490014
         4         3         8         9     9        0.000000        1.062382         3    ;  uncertainty k = 0.306250
         4         3         8         9     9      180.000000        1.229918         4    ;  uncertainty k = 0.240481
         4         3         8        28     9        0.000000        0.082585         1    ;  uncertainty k = 0.478370
         4         3         8        28     9      180.000000        8.184425         2    ;  uncertainty k = 0.160911
         4         3         8        28     9        0.000000        1.334761         3    ;  uncertainty k = 0.287524
         4         3         8        28     9      180.000000        1.077781         4    ;  uncertainty k = 0.152802
         4         5         6         7     9        0.000000       -0.104342         1    ;  uncertainty k = 0.551095
         4         5         6         7     9      180.000000       17.905689         2    ;  uncertainty k = 0.364238
         4         5         6         7     9        0.000000        0.838679         3    ;  uncertainty k = 0.166170
         4         5         6         7     9      180.000000        0.805868         4    ;  uncertainty k = 0.405203
         4         5         6        70     9        0.000000       -0.003674         1    ;  uncertainty k = 0.346857
         4         5         6        70     9      180.000000       18.610037         2    ;  uncertainty k = 0.597970
         4         5         6        70     9        0.000000        1.624402         3    ;  uncertainty k = 0.222310
         4         5         6        70     9      180.000000        0.736827         4    ;  uncertainty k = 0.491852
         4         5        12        13     9        0.000000        2.721584         1    ;  uncertainty k = 0.939699
         4         5        12        13     9      180.000000        4.077025         2    ;  uncertainty k = 0.769952
         4         5        12        13     9        0.000000        0.228135         3    ;  uncertainty k = 0.876764
         4         5        12        13     9      180.000000       -0.363851         4    ;  uncertainty k = 0.185280
         4         5        12        15     9        0.000000       -1.255047         1    ;  uncertainty k = 1.017930
         4         5        12        15     9      180.000000        4.975345         2    ;  uncertainty k = 0.491947
         4         5        12        15     9        0.000000        0.937465         3    ;  uncertainty k = 0.268977
         4         5        12        15     9      180.000000       -0.038640         4    ;  uncertainty k = 0.110211
         5         4         3         8     9        0.000000        1.507529         1    ;  uncertainty k = 0.890992
         5         4         3         8     9      180.000000        5.060295         2    ;  uncertainty k = 0.527275
         5         4         3         8     9        0.000000        0.826115         3    ;  uncertainty k = 0.196205
         5         4         3         8     9      180.000000        0.026233         4    ;  uncertainty k = 0.259308
         5         6         7        27     9        0.000000       -0.980136         1    ;  uncertainty k = 1.697147
         5         6         7        27     9      180.000000        3.842145         2    ;  uncertainty k = 0.422280
         5         6         7        27     9        0.000000        0.088130         3    ;  uncertainty k = 0.327983
         5         6         7        27     9      180.000000       -0.099192         4    ;  uncertainty k = 0.194981
         5        12        13        14     9        0.000000        5.220160         1    ;  uncertainty k = 1.330719
         5        12        13        14     9      180.000000       13.187119         2    ;  uncertainty k = 0.358742
         5        12        13        14     9        0.000000        1.646502         3    ;  uncertainty k = 0.194402
         5        12        13        14     9      180.000000       -1.338550         4    ;  uncertainty k = 0.450717
         5        12        13        31     9        0.000000        0.319932         1    ;  uncertainty k = 0.696276
         5        12        13        31     9      180.000000        7.297144         2    ;  uncertainty k = 0.995903
         5        12        13        31     9        0.000000        2.904405         3    ;  uncertainty k = 0.407033
         5        12        13        31     9      180.000000        0.097548         4    ;  uncertainty k = 0.348711
         6         5         4        69     9        0.000000        3.371618         1    ;  uncertainty k = 1.954249
         6         5         4        69     9      180.000000        6.956312         2    ;  uncertainty k = 0.279431
         6         5         4        69     9        0.000000        0.847613         3    ;  uncertainty k = 0.531439
         6         5         4        69     9      180.000000       -0.002116         4    ;  uncertainty k = 0.159678
         6         5        12        13     9        0.000000        0.301691         1    ;  uncertainty k = 1.005415
         6         5        12        13     9      180.000000        2.025519         2    ;  uncertainty k = 0.352175
         6         5        12        13     9        0.000000        1.147753         3    ;  uncertainty k = 0.219085
         6         5        12        13     9      180.000000       -0.414261         4    ;  uncertainty k = 0.239747
         6         5        12        15     9        0.000000       -2.571951         1    ;  uncertainty k = 1.325816
         6         5        12        15     9      180.000000        1.816837         2    ;  uncertainty k = 0.705305
         6         5        12        15     9        0.000000        0.288826         3    ;  uncertainty k = 0.139230
         6         5        12        15     9      180.000000        0.014809         4    ;  uncertainty k = 0.074711
         6         7         1        11     9        0.000000        0.205565         1    ;  uncertainty k = 1.010208
         6         7         1        11     9      180.000000        2.551770         2    ;  uncertainty k = 0.912765
         6         7         1        11     9        0.000000        0.641443         3    ;  uncertainty k = 0.489651
         6         7         1        11     9      180.000000        0.339976         4    ;  uncertainty k = 0.069761
         7         1         3         8     9        0.000000       -0.056141         1    ;  uncertainty k = 0.471859
         7         1         3         8     9      180.000000        6.432690         2    ;  uncertainty k = 0.512679
         7         1         3         8     9        0.000000        1.121764         3    ;  uncertainty k = 0.259264
         7         1         3         8     9      180.000000        1.666638         4    ;  uncertainty k = 0.151554
         7         1        11        10     9        0.000000        0.057831         1    ;  uncertainty k = 0.082271
         7         1        11        10     9      180.000000        8.963112         2    ;  uncertainty k = 0.725659
         7         1        11        10     9        0.000000        1.638193         3    ;  uncertainty k = 0.362514
         7         1        11        10     9      180.000000        1.987255         4    ;  uncertainty k = 0.290690
         7         1        11        30     9        0.000000       -0.386969         1    ;  uncertainty k = 0.565238
         7         1        11        30     9      180.000000        7.965838         2    ;  uncertainty k = 0.424523
         7         1        11        30     9        0.000000        1.195852         3    ;  uncertainty k = 0.140425
         7         1        11        30     9      180.000000        1.364436         4    ;  uncertainty k = 0.105818
         7         6         5        12     9        0.000000        0.486095         1    ;  uncertainty k = 0.685195
         7         6         5        12     9      180.000000       13.776661         2    ;  uncertainty k = 0.231184
         7         6         5        12     9        0.000000        2.167471         3    ;  uncertainty k = 0.374708
         7         6         5        12     9      180.000000        1.095545         4    ;  uncertainty k = 0.218608
         8         3         1        11     9        0.000000        0.109501         1    ;  uncertainty k = 0.434336
         8         3         1        11     9      180.000000        7.123111         2    ;  uncertainty k = 0.704956
         8         3         1        11     9        0.000000        0.356241         3    ;  uncertainty k = 0.381922
         8         3         1        11     9      180.000000        1.379269         4    ;  uncertainty k = 0.297695
         8         3         4        69     9        0.000000        1.908946         1    ;  uncertainty k = 2.048083
         8         3         4        69     9      180.000000        3.923553         2    ;  uncertainty k = 0.400533
         8         3         4        69     9        0.000000        0.801400         3    ;  uncertainty k = 0.383753
         8         3         4        69     9      180.000000        0.003312         4    ;  uncertainty k = 0.239245
         8         9        10        11     9        0.000000       -0.105363         1    ;  uncertainty k = 0.119970
         8         9        10        11     9      180.000000        9.161064         2    ;  uncertainty k = 0.609967
         8         9        10        11     9        0.000000       -0.167470         3    ;  uncertainty k = 0.338818
         8         9        10        11     9      180.000000        1.144957         4    ;  uncertainty k = 0.332939
         9        10        11        30     9        0.000000        0.019029         1    ;  uncertainty k = 0.302297
         9        10        11        30     9      180.000000        6.622402         2    ;  uncertainty k = 0.465870
         9        10        11        30     9        0.000000        1.484499         3    ;  uncertainty k = 0.323499
         9        10        11        30     9      180.000000        1.638631         4    ;  uncertainty k = 0.109198
        10         9         8        28     9        0.000000        0.025692         1    ;  uncertainty k = 0.227735
        10         9         8        28     9      180.000000        9.257322         2    ;  uncertainty k = 0.516814
        10         9         8        28     9        0.000000        1.591926         3    ;  uncertainty k = 0.286010
        10         9         8        28     9      180.000000        1.950096         4    ;  uncertainty k = 0.265611
        11         1         7        27     9        0.000000       -1.275491         1    ;  uncertainty k = 0.190997
        11         1         7        27     9      180.000000        4.828283         2    ;  uncertainty k = 0.756664
        11         1         7        27     9        0.000000        0.455391         3    ;  uncertainty k = 0.414176
        11         1         7        27     9      180.000000       -0.078391         4    ;  uncertainty k = 0.042258
        11        10         9        29     9        0.000000       -0.128130         1    ;  uncertainty k = 0.276343
        11        10         9        29     9      180.000000        5.602483         2    ;  uncertainty k = 0.543462
        11        10         9        29     9        0.000000        1.306949         3    ;  uncertainty k = 0.262410
        11        10         9        29     9      180.000000        1.438720         4    ;  uncertainty k = 0.159515
        12         5         4        69     9        0.000000        2.117835         1    ;  uncertainty k = 1.540806
        12         5         4        69     9      180.000000        3.233711         2    ;  uncertainty k = 1.430174
        12         5         4        69     9        0.000000        1.052387         3    ;  uncertainty k = 0.448650
        12         5         4        69     9      180.000000        0.062937         4    ;  uncertainty k = 0.204320
        12         5         6        70     9        0.000000       -0.328860         1    ;  uncertainty k = 0.384172
        12         5         6        70     9      180.000000       12.646599         2    ;  uncertainty k = 0.527010
        12         5         6        70     9        0.000000        1.702482         3    ;  uncertainty k = 0.363291
        12         5         6        70     9      180.000000        1.022554         4    ;  uncertainty k = 0.333904
        12        13        14        16     9        0.000000        0.646125         1    ;  uncertainty k = 0.316031
        12        13        14        16     9      180.000000        0.089897         2    ;  uncertainty k = 0.258398
        12        13        14        16     9        0.000000       -0.045249         3    ;  uncertainty k = 0.076267
        12        13        14        16     9      180.000000        0.472512         4    ;  uncertainty k = 0.279450
        12        13        14        20     9        0.000000        0.426279         1    ;  uncertainty k = 0.316302
        12        13        14        20     9      180.000000       -0.024730         2    ;  uncertainty k = 0.336504
        12        13        14        20     9        0.000000        0.205296         3    ;  uncertainty k = 0.070523
        12        13        14        20     9      180.000000        0.377625         4    ;  uncertainty k = 0.215651
        12        13        14        32     9        0.000000        0.939001         1    ;  uncertainty k = 0.193489
        12        13        14        32     9      180.000000       -0.491971         2    ;  uncertainty k = 0.268097
        12        13        14        32     9        0.000000        0.079284         3    ;  uncertainty k = 0.174238
        12        13        14        32     9      180.000000        0.175350         4    ;  uncertainty k = 0.107679
        13        14        16        17     9        0.000000       -2.356818         1    ;  uncertainty k = 0.459796
        13        14        16        17     9      180.000000       -0.321423         2    ;  uncertainty k = 0.327673
        13        14        16        17     9        0.000000        0.525782         3    ;  uncertainty k = 0.253973
        13        14        16        17     9      180.000000       -0.072295         4    ;  uncertainty k = 0.107221
        13        14        16        21     9        0.000000        0.346139         1    ;  uncertainty k = 0.872166
        13        14        16        21     9      180.000000       -1.142708         2    ;  uncertainty k = 0.801613
        13        14        16        21     9        0.000000        0.369085         3    ;  uncertainty k = 0.433305
        13        14        16        21     9      180.000000       -0.037690         4    ;  uncertainty k = 0.383561
        13        14        16        68     9        0.000000       -0.041073         1    ;  uncertainty k = 0.892772
        13        14        16        68     9      180.000000       -1.434774         2    ;  uncertainty k = 0.473858
        13        14        16        68     9        0.000000        0.486368         3    ;  uncertainty k = 0.252212
        13        14        16        68     9      180.000000       -0.286135         4    ;  uncertainty k = 0.117935
        13        14        20        19     9        0.000000       -4.048730         1    ;  uncertainty k = 0.857827
        13        14        20        19     9      180.000000        0.149997         2    ;  uncertainty k = 0.177887
        13        14        20        19     9        0.000000        0.869214         3    ;  uncertainty k = 0.085764
        13        14        20        19     9      180.000000       -0.164348         4    ;  uncertainty k = 0.109098
        13        14        20        60     9        0.000000       -0.369428         1    ;  uncertainty k = 0.486309
        13        14        20        60     9      180.000000       -1.381201         2    ;  uncertainty k = 0.425070
        13        14        20        60     9        0.000000        0.903389         3    ;  uncertainty k = 0.123214
        13        14        20        60     9      180.000000       -0.290821         4    ;  uncertainty k = 0.070885
        13        14        20        61     9        0.000000       -0.369428         1    ;  uncertainty k = 0.486309
        13        14        20        61     9      180.000000       -1.381201         2    ;  uncertainty k = 0.425070
        13        14        20        61     9        0.000000        0.903389         3    ;  uncertainty k = 0.123214
        13        14        20        61     9      180.000000       -0.290821         4    ;  uncertainty k = 0.070885
        14        13        12        15     9        0.000000        3.160179         1    ;  uncertainty k = 0.414198
        14        13        12        15     9      180.000000       11.642903         2    ;  uncertainty k = 0.101968
        14        13        12        15     9        0.000000        0.539969         3    ;  uncertainty k = 0.202327
        14        13        12        15     9      180.000000        0.054834         4    ;  uncertainty k = 0.330612
        14        16        17        18     9        0.000000       -1.422268         1    ;  uncertainty k = 2.687840
        14        16        17        18     9      180.000000       -1.372244         2    ;  uncertainty k = 1.266315
        14        16        17        18     9        0.000000        0.520722         3    ;  uncertainty k = 0.498083
        14        16        17        18     9      180.000000       -1.215413         4    ;  uncertainty k = 0.210469
        14        16        17        55     9        0.000000       -0.883136         1    ;  uncertainty k = 0.508196
        14        16        17        55     9      180.000000       -0.614929         2    ;  uncertainty k = 0.175084
        14        16        17        55     9        0.000000        0.124594         3    ;  uncertainty k = 0.064034
        14        16        17        55     9      180.000000       -0.135751         4    ;  uncertainty k = 0.114004
        14        16        17        56     9        0.000000       -0.883136         1    ;  uncertainty k = 0.508196
        14        16        17        56     9      180.000000       -0.614929         2    ;  uncertainty k = 0.175084
        14        16        17        56     9        0.000000        0.124594         3    ;  uncertainty k = 0.064034
        14        16        17        56     9      180.000000       -0.135751         4    ;  uncertainty k = 0.114004
        14        16        21        22     9        0.000000        0.794846         1    ;  uncertainty k = 0.604396
        14        16        21        22     9      180.000000        0.224272         2    ;  uncertainty k = 0.185685
        14        16        21        22     9        0.000000       -0.089245         3    ;  uncertainty k = 0.110265
        14        16        21        22     9      180.000000        0.458816         4    ;  uncertainty k = 0.210243
        14        16        21        33     9        0.000000        2.683155         1    ;  uncertainty k = 0.609086
        14        16        21        33     9      180.000000       -1.562794         2    ;  uncertainty k = 0.401578
        14        16        21        33     9        0.000000        0.519888         3    ;  uncertainty k = 0.250676
        14        16        21        33     9      180.000000        0.165823         4    ;  uncertainty k = 0.146369
        14        20        19        18     9        0.000000       -5.573238         1    ;  uncertainty k = 0.727025
        14        20        19        18     9      180.000000       -1.078323         2    ;  uncertainty k = 0.651288
        14        20        19        18     9        0.000000        1.425236         3    ;  uncertainty k = 0.144828
        14        20        19        18     9      180.000000       -1.198239         4    ;  uncertainty k = 0.215276
        14        20        19        58     9        0.000000       -1.161760         1    ;  uncertainty k = 0.416585
        14        20        19        58     9      180.000000       -0.677761         2    ;  uncertainty k = 0.277437
        14        20        19        58     9        0.000000        0.404336         3    ;  uncertainty k = 0.184873
        14        20        19        58     9      180.000000       -0.085548         4    ;  uncertainty k = 0.032870
        14        20        19        59     9        0.000000       -1.161760         1    ;  uncertainty k = 0.416585
        14        20        19        59     9      180.000000       -0.677761         2    ;  uncertainty k = 0.277437
        14        20        19        59     9        0.000000        0.404336         3    ;  uncertainty k = 0.184873
        14        20        19        59     9      180.000000       -0.085548         4    ;  uncertainty k = 0.032870
        15        12        13        31     9        0.000000        2.913947         1    ;  uncertainty k = 0.917754
        15        12        13        31     9      180.000000       15.027783         2    ;  uncertainty k = 0.241904
        15        12        13        31     9        0.000000        1.665956         3    ;  uncertainty k = 0.254606
        15        12        13        31     9      180.000000       -0.431572         4    ;  uncertainty k = 0.138654
        16        14        13        31     9        0.000000        2.346618         1    ;  uncertainty k = 0.787598
        16        14        13        31     9      180.000000       -1.628459         2    ;  uncertainty k = 0.646449
        16        14        13        31     9        0.000000        0.541827         3    ;  uncertainty k = 0.258670
        16        14        13        31     9      180.000000        0.163694         4    ;  uncertainty k = 0.124753
        16        14        20        19     9        0.000000       -4.769725         1    ;  uncertainty k = 1.415166
        16        14        20        19     9      180.000000        0.201537         2    ;  uncertainty k = 0.751947
        16        14        20        19     9        0.000000        0.925807         3    ;  uncertainty k = 0.341424
        16        14        20        19     9      180.000000       -1.207936         4    ;  uncertainty k = 0.157739
        16        14        20        60     9        0.000000       -0.721620         1    ;  uncertainty k = 0.641095
        16        14        20        60     9      180.000000       -0.679473         2    ;  uncertainty k = 0.270082
        16        14        20        60     9        0.000000        0.104003         3    ;  uncertainty k = 0.043100
        16        14        20        60     9      180.000000       -0.120906         4    ;  uncertainty k = 0.094153
        16        14        20        61     9        0.000000       -0.721620         1    ;  uncertainty k = 0.641095
        16        14        20        61     9      180.000000       -0.679473         2    ;  uncertainty k = 0.270082
        16        14        20        61     9        0.000000        0.104003         3    ;  uncertainty k = 0.043100
        16        14        20        61     9      180.000000       -0.120906         4    ;  uncertainty k = 0.094153
        16        17        18        19     9        0.000000       -3.684684         1    ;  uncertainty k = 1.555404
        16        17        18        19     9      180.000000       -0.286572         2    ;  uncertainty k = 0.574153
        16        17        18        19     9        0.000000        0.981635         3    ;  uncertainty k = 0.134172
        16        17        18        19     9      180.000000       -1.149549         4    ;  uncertainty k = 0.220596
        16        17        18        50     9        0.000000       -1.988663         1    ;  uncertainty k = 0.821936
        16        17        18        50     9      180.000000       -0.960549         2    ;  uncertainty k = 0.272982
        16        17        18        50     9        0.000000        0.443546         3    ;  uncertainty k = 0.317502
        16        17        18        50     9      180.000000        0.183458         4    ;  uncertainty k = 0.094088
        16        17        18        57     9        0.000000       -1.929217         1    ;  uncertainty k = 0.461104
        16        17        18        57     9      180.000000       -0.447748         2    ;  uncertainty k = 0.220193
        16        17        18        57     9        0.000000        0.087566         3    ;  uncertainty k = 0.087859
        16        17        18        57     9      180.000000       -0.164482         4    ;  uncertainty k = 0.141866
        16        21        22        23     9        0.000000        3.958068         1    ;  uncertainty k = 1.380043
        16        21        22        23     9      180.000000       12.511831         2    ;  uncertainty k = 0.156026
        16        21        22        23     9        0.000000        1.263553         3    ;  uncertainty k = 0.259475
        16        21        22        23     9      180.000000       -1.435052         4    ;  uncertainty k = 0.493362
        16        21        22        24     9        0.000000        4.206341         1    ;  uncertainty k = 1.055487
        16        21        22        24     9      180.000000       13.261930         2    ;  uncertainty k = 0.104052
        16        21        22        24     9        0.000000        0.422296         3    ;  uncertainty k = 0.282045
        16        21        22        24     9      180.000000       -0.345763         4    ;  uncertainty k = 0.133307
        17        16        14        20     9        0.000000       -1.470264         1    ;  uncertainty k = 2.461753
        17        16        14        20     9      180.000000        0.524671         2    ;  uncertainty k = 0.969946
        17        16        14        20     9        0.000000        0.425296         3    ;  uncertainty k = 0.508322
        17        16        14        20     9      180.000000       -1.120347         4    ;  uncertainty k = 0.264941
        17        16        14        32     9        0.000000       -1.280058         1    ;  uncertainty k = 0.301450
        17        16        14        32     9      180.000000       -0.208066         2    ;  uncertainty k = 0.248022
        17        16        14        32     9        0.000000       -0.234106         3    ;  uncertainty k = 0.060789
        17        16        14        32     9      180.000000       -0.145743         4    ;  uncertainty k = 0.047964
        17        16        21        22     9        0.000000        0.364606         1    ;  uncertainty k = 0.383608
        17        16        21        22     9      180.000000        0.211641         2    ;  uncertainty k = 0.299414
        17        16        21        22     9        0.000000        0.181029         3    ;  uncertainty k = 0.072944
        17        16        21        22     9      180.000000        0.342393         4    ;  uncertainty k = 0.127149
        17        16        21        33     9        0.000000        0.945683         1    ;  uncertainty k = 0.464115
        17        16        21        33     9      180.000000       -0.514672         2    ;  uncertainty k = 0.347973
        17        16        21        33     9        0.000000        0.327272         3    ;  uncertainty k = 0.178732
        17        16        21        33     9      180.000000        0.059847         4    ;  uncertainty k = 0.085826
        17        18        19        20     9        0.000000       -5.487573         1    ;  uncertainty k = 0.618648
        17        18        19        20     9      180.000000        0.628450         2    ;  uncertainty k = 0.548060
        17        18        19        20     9        0.000000        1.367560         3    ;  uncertainty k = 0.173350
        17        18        19        20     9      180.000000       -1.033143         4    ;  uncertainty k = 0.273102
        17        18        19        58     9        0.000000       -1.226844         1    ;  uncertainty k = 0.266748
        17        18        19        58     9      180.000000       -0.345485         2    ;  uncertainty k = 0.101300
        17        18        19        58     9        0.000000        0.394880         3    ;  uncertainty k = 0.108227
        17        18        19        58     9      180.000000       -0.070781         4    ;  uncertainty k = 0.048007
        17        18        19        59     9        0.000000       -1.226844         1    ;  uncertainty k = 0.266748
        17        18        19        59     9      180.000000       -0.345485         2    ;  uncertainty k = 0.101300
        17        18        19        59     9        0.000000        0.394880         3    ;  uncertainty k = 0.108227
        17        18        19        59     9      180.000000       -0.070781         4    ;  uncertainty k = 0.048007
        17        18        50        51     9        0.000000       -1.170185         1    ;  uncertainty k = 0.334655
        17        18        50        51     9      180.000000        4.880266         2    ;  uncertainty k = 0.323686
        17        18        50        51     9        0.000000        1.279706         3    ;  uncertainty k = 0.118363
        17        18        50        51     9      180.000000        0.575624         4    ;  uncertainty k = 0.083005
        17        18        50        52     9        0.000000       -1.631697         1    ;  uncertainty k = 0.279350
        17        18        50        52     9      180.000000        3.392199         2    ;  uncertainty k = 0.510159
        17        18        50        52     9        0.000000        0.814553         3    ;  uncertainty k = 0.127255
        17        18        50        52     9      180.000000        0.128487         4    ;  uncertainty k = 0.053904
        18        17        16        21     9        0.000000       -2.824384         1    ;  uncertainty k = 0.488217
        18        17        16        21     9      180.000000       -0.460507         2    ;  uncertainty k = 0.536155
        18        17        16        21     9        0.000000        0.759551         3    ;  uncertainty k = 0.189386
        18        17        16        21     9      180.000000       -0.140203         4    ;  uncertainty k = 0.174781
        18        17        16        68     9        0.000000       -0.730287         1    ;  uncertainty k = 0.498293
        18        17        16        68     9      180.000000       -0.792172         2    ;  uncertainty k = 0.456680
        18        17        16        68     9        0.000000       -0.041965         3    ;  uncertainty k = 0.196130
        18        17        16        68     9      180.000000       -0.091310         4    ;  uncertainty k = 0.082273
        18        19        20        60     9        0.000000       -1.242829         1    ;  uncertainty k = 0.333977
        18        19        20        60     9      180.000000       -0.548741         2    ;  uncertainty k = 0.201763
        18        19        20        60     9        0.000000        0.486940         3    ;  uncertainty k = 0.161944
        18        19        20        60     9      180.000000       -0.063210         4    ;  uncertainty k = 0.051028
        18        19        20        61     9        0.000000       -1.242829         1    ;  uncertainty k = 0.333977
        18        19        20        61     9      180.000000       -0.548741         2    ;  uncertainty k = 0.201763
        18        19        20        61     9        0.000000        0.486940         3    ;  uncertainty k = 0.161944
        18        19        20        61     9      180.000000       -0.063210         4    ;  uncertainty k = 0.051028
        18        50        52        53     9        0.000000        9.050821         1    ;  uncertainty k = 0.304912
        18        50        52        53     9      180.000000        6.374692         2    ;  uncertainty k = 0.405917
        18        50        52        53     9        0.000000        1.178678         3    ;  uncertainty k = 0.297789
        18        50        52        53     9      180.000000        0.054538         4    ;  uncertainty k = 0.124306
        18        50        52        54     9        0.000000        9.050821         1    ;  uncertainty k = 0.304912
        18        50        52        54     9      180.000000        6.374692         2    ;  uncertainty k = 0.405917
        18        50        52        54     9        0.000000        1.178678         3    ;  uncertainty k = 0.297789
        18        50        52        54     9      180.000000        0.054538         4    ;  uncertainty k = 0.124306
        19        18        17        55     9        0.000000       -1.411123         1    ;  uncertainty k = 0.345622
        19        18        17        55     9      180.000000       -0.225290         2    ;  uncertainty k = 0.172594
        19        18        17        55     9        0.000000        0.346843         3    ;  uncertainty k = 0.114252
        19        18        17        55     9      180.000000       -0.038457         4    ;  uncertainty k = 0.044896
        19        18        17        56     9        0.000000       -1.411123         1    ;  uncertainty k = 0.345622
        19        18        17        56     9      180.000000       -0.225290         2    ;  uncertainty k = 0.172594
        19        18        17        56     9        0.000000        0.346843         3    ;  uncertainty k = 0.114252
        19        18        17        56     9      180.000000       -0.038457         4    ;  uncertainty k = 0.044896
        19        18        50        51     9        0.000000       -1.412751         1    ;  uncertainty k = 0.366362
        19        18        50        51     9      180.000000        4.939282         2    ;  uncertainty k = 0.250194
        19        18        50        51     9        0.000000        1.341107         3    ;  uncertainty k = 0.099404
        19        18        50        51     9      180.000000        0.562838         4    ;  uncertainty k = 0.064019
        19        18        50        52     9        0.000000       -1.501807         1    ;  uncertainty k = 0.463410
        19        18        50        52     9      180.000000        3.323275         2    ;  uncertainty k = 0.502078
        19        18        50        52     9        0.000000        0.807080         3    ;  uncertainty k = 0.124119
        19        18        50        52     9      180.000000        0.125518         4    ;  uncertainty k = 0.039696
        19        20        14        32     9        0.000000       -1.467742         1    ;  uncertainty k = 0.302096
        19        20        14        32     9      180.000000       -0.257258         2    ;  uncertainty k = 0.240113
        19        20        14        32     9        0.000000        0.030321         3    ;  uncertainty k = 0.101962
        19        20        14        32     9      180.000000       -0.152013         4    ;  uncertainty k = 0.107484
        20        14        13        31     9        0.000000        0.500756         1    ;  uncertainty k = 0.672197
        20        14        13        31     9      180.000000       -0.523156         2    ;  uncertainty k = 0.380740
        20        14        13        31     9        0.000000        0.306707         3    ;  uncertainty k = 0.121038
        20        14        13        31     9      180.000000        0.046228         4    ;  uncertainty k = 0.064018
        20        14        16        21     9        0.000000       -2.812770         1    ;  uncertainty k = 0.476021
        20        14        16        21     9      180.000000       -0.110266         2    ;  uncertainty k = 0.376076
        20        14        16        21     9        0.000000        0.581736         3    ;  uncertainty k = 0.177495
        20        14        16        21     9      180.000000       -0.070447         4    ;  uncertainty k = 0.196410
        20        14        16        68     9        0.000000       -1.253602         1    ;  uncertainty k = 0.261135
        20        14        16        68     9      180.000000       -0.299214         2    ;  uncertainty k = 0.366643
        20        14        16        68     9        0.000000       -0.218863         3    ;  uncertainty k = 0.083190
        20        14        16        68     9      180.000000       -0.165690         4    ;  uncertainty k = 0.068380
        20        19        18        50     9        0.000000       -3.042856         1    ;  uncertainty k = 1.255460
        20        19        18        50     9      180.000000       -0.384066         2    ;  uncertainty k = 0.506050
        20        19        18        50     9        0.000000        0.568068         3    ;  uncertainty k = 0.143563
        20        19        18        50     9      180.000000        0.123689         4    ;  uncertainty k = 0.149073
        20        19        18        57     9        0.000000       -2.461228         1    ;  uncertainty k = 0.396150
        20        19        18        57     9      180.000000        0.138744         2    ;  uncertainty k = 0.107060
        20        19        18        57     9        0.000000        0.248333         3    ;  uncertainty k = 0.111967
        20        19        18        57     9      180.000000       -0.235150         4    ;  uncertainty k = 0.140386
        21        16        14        32     9        0.000000        0.062344         1    ;  uncertainty k = 1.100183
        21        16        14        32     9      180.000000       -1.469345         2    ;  uncertainty k = 0.520599
        21        16        14        32     9        0.000000        0.495032         3    ;  uncertainty k = 0.272668
        21        16        14        32     9      180.000000       -0.255767         4    ;  uncertainty k = 0.119865
        21        16        17        55     9        0.000000       -0.427435         1    ;  uncertainty k = 0.715503
        21        16        17        55     9      180.000000       -1.219759         2    ;  uncertainty k = 0.324042
        21        16        17        55     9        0.000000        0.959594         3    ;  uncertainty k = 0.057792
        21        16        17        55     9      180.000000       -0.287421         4    ;  uncertainty k = 0.054437
        21        16        17        56     9        0.000000       -0.427435         1    ;  uncertainty k = 0.715503
        21        16        17        56     9      180.000000       -1.219759         2    ;  uncertainty k = 0.324042
        21        16        17        56     9        0.000000        0.959594         3    ;  uncertainty k = 0.057792
        21        16        17        56     9      180.000000       -0.287421         4    ;  uncertainty k = 0.054437
        21        22        23        25     9        0.000000        2.331066         1    ;  uncertainty k = 1.152102
        21        22        23        25     9      180.000000        2.596169         2    ;  uncertainty k = 0.278815
        21        22        23        25     9        0.000000        0.009927         3    ;  uncertainty k = 0.144977
        21        22        23        25     9      180.000000       -0.114334         4    ;  uncertainty k = 0.149289
        21        22        23        26     9        0.000000        3.367960         1    ;  uncertainty k = 1.051353
        21        22        23        26     9      180.000000        3.218021         2    ;  uncertainty k = 0.680396
        21        22        23        26     9        0.000000        1.143577         3    ;  uncertainty k = 0.311002
        21        22        23        26     9      180.000000       -0.348976         4    ;  uncertainty k = 0.193639
        22        21        16        68     9        0.000000        1.089648         1    ;  uncertainty k = 0.334910
        22        21        16        68     9      180.000000       -0.432136         2    ;  uncertainty k = 0.173910
        22        21        16        68     9        0.000000        0.083475         3    ;  uncertainty k = 0.110493
        22        21        16        68     9      180.000000        0.217577         4    ;  uncertainty k = 0.051810
        22        23        25        34     9        0.000000        0.338836         1    ;  uncertainty k = 0.784673
        22        23        25        34     9      180.000000       19.192857         2    ;  uncertainty k = 0.359716
        22        23        25        34     9        0.000000        1.903447         3    ;  uncertainty k = 0.386883
        22        23        25        34     9      180.000000        1.368535         4    ;  uncertainty k = 0.528772
        22        23        26        35     9        0.000000        0.370727         1    ;  uncertainty k = 1.804242
        22        23        26        35     9      180.000000        8.920830         2    ;  uncertainty k = 1.081273
        22        23        26        35     9        0.000000        0.589745         3    ;  uncertainty k = 1.110553
        22        23        26        35     9      180.000000        0.676613         4    ;  uncertainty k = 0.547063
        23        22        21        33     9        0.000000       -0.086051         1    ;  uncertainty k = 0.569285
        23        22        21        33     9      180.000000        6.824223         2    ;  uncertainty k = 1.004102
        23        22        21        33     9        0.000000        2.774672         3    ;  uncertainty k = 0.278048
        23        22        21        33     9      180.000000        0.087878         4    ;  uncertainty k = 0.345011
        23        25        34        35     9        0.000000       -0.476241         1    ;  uncertainty k = 0.425307
        23        25        34        35     9      180.000000       15.671500         2    ;  uncertainty k = 0.795841
        23        25        34        35     9        0.000000       -2.864533         3    ;  uncertainty k = 0.780902
        23        25        34        35     9      180.000000        1.605024         4    ;  uncertainty k = 0.448125
        23        25        34        39     9        0.000000        0.569206         1    ;  uncertainty k = 1.621980
        23        25        34        39     9      180.000000       12.800205         2    ;  uncertainty k = 0.282748
        23        25        34        39     9        0.000000        1.817073         3    ;  uncertainty k = 0.361654
        23        25        34        39     9      180.000000        0.682642         4    ;  uncertainty k = 0.136948
        23        26        35        34     9        0.000000       -0.523789         1    ;  uncertainty k = 1.004169
        23        26        35        34     9      180.000000       13.442345         2    ;  uncertainty k = 0.923619
        23        26        35        34     9        0.000000       -9.024257         3    ;  uncertainty k = 1.660071
        23        26        35        34     9      180.000000        1.636793         4    ;  uncertainty k = 0.487983
        23        26        35        36     9        0.000000        1.116166         1    ;  uncertainty k = 1.266411
        23        26        35        36     9      180.000000       10.158909         2    ;  uncertainty k = 0.818049
        23        26        35        36     9        0.000000        0.724355         3    ;  uncertainty k = 0.566010
        23        26        35        36     9      180.000000       -0.026620         4    ;  uncertainty k = 0.200593
        24        22        21        33     9        0.000000        2.038363         1    ;  uncertainty k = 0.746143
        24        22        21        33     9      180.000000       14.699346         2    ;  uncertainty k = 0.325315
        24        22        21        33     9        0.000000        1.840592         3    ;  uncertainty k = 0.226058
        24        22        21        33     9      180.000000       -0.518143         4    ;  uncertainty k = 0.264067
        24        22        23        25     9        0.000000       -0.975565         1    ;  uncertainty k = 1.614283
        24        22        23        25     9      180.000000        3.488550         2    ;  uncertainty k = 0.286154
        24        22        23        25     9        0.000000        0.632000         3    ;  uncertainty k = 0.220397
        24        22        23        25     9      180.000000        0.223278         4    ;  uncertainty k = 0.063243
        24        22        23        26     9        0.000000       -0.928770         1    ;  uncertainty k = 0.780300
        24        22        23        26     9      180.000000        4.634695         2    ;  uncertainty k = 0.475093
        24        22        23        26     9        0.000000        0.007574         3    ;  uncertainty k = 0.071977
        24        22        23        26     9      180.000000        0.288910         4    ;  uncertainty k = 0.240907
        25        23        26        35     9        0.000000        0.143511         1    ;  uncertainty k = 1.333641
        25        23        26        35     9      180.000000       14.564367         2    ;  uncertainty k = 1.374348
        25        23        26        35     9        0.000000       -9.893199         3    ;  uncertainty k = 1.620531
        25        23        26        35     9      180.000000        1.663619         4    ;  uncertainty k = 0.759588
        25        34        35        26     9        0.000000        0.087022         1    ;  uncertainty k = 0.519435
        25        34        35        26     9      180.000000       17.308740         2    ;  uncertainty k = 0.865665
        25        34        35        26     9        0.000000       -2.374264         3    ;  uncertainty k = 0.748324
        25        34        35        26     9      180.000000        1.160228         4    ;  uncertainty k = 0.641111
        25        34        35        36     9        0.000000        0.011055         1    ;  uncertainty k = 0.425259
        25        34        35        36     9      180.000000       14.953749         2    ;  uncertainty k = 0.328993
        25        34        35        36     9        0.000000        1.241934         3    ;  uncertainty k = 0.342959
        25        34        35        36     9      180.000000        1.144042         4    ;  uncertainty k = 0.470191
        25        34        39        38     9        0.000000       -3.954572         1    ;  uncertainty k = 1.035742
        25        34        39        38     9      180.000000        1.199577         2    ;  uncertainty k = 0.494541
        25        34        39        38     9        0.000000        0.552603         3    ;  uncertainty k = 0.196554
        25        34        39        38     9      180.000000        0.408701         4    ;  uncertainty k = 0.071879
        25        34        39        45     9        0.000000        0.678330         1    ;  uncertainty k = 0.150352
        25        34        39        45     9      180.000000        1.438459         2    ;  uncertainty k = 0.504096
        25        34        39        45     9        0.000000        0.609129         3    ;  uncertainty k = 0.196471
        25        34        39        45     9      180.000000        0.167234         4    ;  uncertainty k = 0.108981
        25        34        39        46     9        0.000000        0.678330         1    ;  uncertainty k = 0.150352
        25        34        39        46     9      180.000000        1.438459         2    ;  uncertainty k = 0.504096
        25        34        39        46     9        0.000000        0.609129         3    ;  uncertainty k = 0.196471
        25        34        39        46     9      180.000000        0.167234         4    ;  uncertainty k = 0.108981
        26        23        25        34     9        0.000000       -0.152600         1    ;  uncertainty k = 0.906407
        26        23        25        34     9      180.000000       20.432965         2    ;  uncertainty k = 0.275340
        26        23        25        34     9        0.000000       -2.337892         3    ;  uncertainty k = 1.016825
        26        23        25        34     9      180.000000        1.938626         4    ;  uncertainty k = 0.362221
        26        35        34        39     9        0.000000        0.239944         1    ;  uncertainty k = 0.547138
        26        35        34        39     9      180.000000       12.400727         2    ;  uncertainty k = 0.549556
        26        35        34        39     9        0.000000        0.936373         3    ;  uncertainty k = 0.318788
        26        35        34        39     9      180.000000        0.958147         4    ;  uncertainty k = 0.190163
        26        35        36        37     9        0.000000       -8.471687         1    ;  uncertainty k = 1.305576
        26        35        36        37     9      180.000000       -0.738803         2    ;  uncertainty k = 0.986263
        26        35        36        37     9        0.000000        0.572190         3    ;  uncertainty k = 0.535086
        26        35        36        37     9      180.000000        0.223231         4    ;  uncertainty k = 0.263405
        26        35        36        41     9        0.000000        0.153964         1    ;  uncertainty k = 0.629108
        26        35        36        41     9      180.000000        0.393717         2    ;  uncertainty k = 0.317135
        26        35        36        41     9        0.000000        0.658149         3    ;  uncertainty k = 0.161833
        26        35        36        41     9      180.000000       -0.071880         4    ;  uncertainty k = 0.067074
        26        35        36        42     9        0.000000        0.153964         1    ;  uncertainty k = 0.629108
        26        35        36        42     9      180.000000        0.393717         2    ;  uncertainty k = 0.317135
        26        35        36        42     9        0.000000        0.658149         3    ;  uncertainty k = 0.161833
        26        35        36        42     9      180.000000       -0.071880         4    ;  uncertainty k = 0.067074
        27         7         6        70     9        0.000000       -2.227731         1    ;  uncertainty k = 0.828152
        27         7         6        70     9      180.000000        7.484381         2    ;  uncertainty k = 1.150589
        27         7         6        70     9        0.000000        0.533556         3    ;  uncertainty k = 0.357018
        27         7         6        70     9      180.000000       -0.090871         4    ;  uncertainty k = 0.217716
        28         8         9        29     9        0.000000        0.082825         1    ;  uncertainty k = 0.512684
        28         8         9        29     9      180.000000        8.295406         2    ;  uncertainty k = 0.408775
        28         8         9        29     9        0.000000       -0.250093         3    ;  uncertainty k = 0.242523
        28         8         9        29     9      180.000000        0.184465         4    ;  uncertainty k = 0.198894
        31        13        14        32     9        0.000000        0.764437         1    ;  uncertainty k = 0.325344
        31        13        14        32     9      180.000000       -0.735694         2    ;  uncertainty k = 0.233669
        31        13        14        32     9        0.000000        0.219511         3    ;  uncertainty k = 0.144418
        31        13        14        32     9      180.000000        0.149933         4    ;  uncertainty k = 0.055479
        32        14        16        68     9        0.000000        1.517630         1    ;  uncertainty k = 0.278770
        32        14        16        68     9      180.000000       -0.677363         2    ;  uncertainty k = 0.157231
        32        14        16        68     9        0.000000       -0.219450         3    ;  uncertainty k = 0.164898
        32        14        16        68     9      180.000000       -0.045434         4    ;  uncertainty k = 0.124459
        32        14        20        60     9        0.000000        1.377005         1    ;  uncertainty k = 0.283194
        32        14        20        60     9      180.000000       -0.510553         2    ;  uncertainty k = 0.208115
        32        14        20        60     9        0.000000       -0.078579         3    ;  uncertainty k = 0.110925
        32        14        20        60     9      180.000000        0.041475         4    ;  uncertainty k = 0.028475
        32        14        20        61     9        0.000000        1.377005         1    ;  uncertainty k = 0.283194
        32        14        20        61     9      180.000000       -0.510553         2    ;  uncertainty k = 0.208115
        32        14        20        61     9        0.000000       -0.078579         3    ;  uncertainty k = 0.110925
        32        14        20        61     9      180.000000        0.041475         4    ;  uncertainty k = 0.028475
        33        21        16        68     9        0.000000        0.541481         1    ;  uncertainty k = 0.398177
        33        21        16        68     9      180.000000       -0.622570         2    ;  uncertainty k = 0.184277
        33        21        16        68     9        0.000000        0.191619         3    ;  uncertainty k = 0.116496
        33        21        16        68     9      180.000000        0.189193         4    ;  uncertainty k = 0.076095
        34        35        36        37     9        0.000000       -4.140071         1    ;  uncertainty k = 1.925675
        34        35        36        37     9      180.000000        2.074247         2    ;  uncertainty k = 0.552905
        34        35        36        37     9        0.000000       -0.109904         3    ;  uncertainty k = 0.505232
        34        35        36        37     9      180.000000        0.002033         4    ;  uncertainty k = 0.168271
        34        35        36        41     9        0.000000        0.751076         1    ;  uncertainty k = 0.572851
        34        35        36        41     9      180.000000        0.321327         2    ;  uncertainty k = 0.277446
        34        35        36        41     9        0.000000       -0.191165         3    ;  uncertainty k = 0.140749
        34        35        36        41     9      180.000000       -0.337116         4    ;  uncertainty k = 0.203995
        34        35        36        42     9        0.000000        0.751076         1    ;  uncertainty k = 0.572851
        34        35        36        42     9      180.000000        0.321327         2    ;  uncertainty k = 0.277446
        34        35        36        42     9        0.000000       -0.191165         3    ;  uncertainty k = 0.140749
        34        35        36        42     9      180.000000       -0.337116         4    ;  uncertainty k = 0.203995
        34        39        38        37     9        0.000000       -2.230974         1    ;  uncertainty k = 1.801449
        34        39        38        37     9      180.000000       -1.841150         2    ;  uncertainty k = 0.733686
        34        39        38        37     9        0.000000        2.407959         3    ;  uncertainty k = 0.680334
        34        39        38        37     9      180.000000       -0.535745         4    ;  uncertainty k = 0.301690
        34        39        38        43     9        0.000000        1.199598         1    ;  uncertainty k = 0.377899
        34        39        38        43     9      180.000000       -1.613470         2    ;  uncertainty k = 0.549592
        34        39        38        43     9        0.000000        0.472706         3    ;  uncertainty k = 0.260800
        34        39        38        43     9      180.000000        0.111560         4    ;  uncertainty k = 0.091588
        34        39        38        44     9        0.000000        1.199598         1    ;  uncertainty k = 0.377899
        34        39        38        44     9      180.000000       -1.613470         2    ;  uncertainty k = 0.549592
        34        39        38        44     9        0.000000        0.472706         3    ;  uncertainty k = 0.260800
        34        39        38        44     9      180.000000        0.111560         4    ;  uncertainty k = 0.091588
        35        34        39        38     9        0.000000       -4.440652         1    ;  uncertainty k = 1.431166
        35        34        39        38     9      180.000000        4.155396         2    ;  uncertainty k = 1.296225
        35        34        39        38     9        0.000000       -0.642889         3    ;  uncertainty k = 0.597439
        35        34        39        38     9      180.000000       -0.217610         4    ;  uncertainty k = 0.318749
        35        34        39        45     9        0.000000        0.013025         1    ;  uncertainty k = 0.359065
        35        34        39        45     9      180.000000        1.250042         2    ;  uncertainty k = 0.490358
        35        34        39        45     9        0.000000        0.121610         3    ;  uncertainty k = 0.182463
        35        34        39        45     9      180.000000       -0.043715         4    ;  uncertainty k = 0.054548
        35        34        39        46     9        0.000000        0.013025         1    ;  uncertainty k = 0.359065
        35        34        39        46     9      180.000000        1.250042         2    ;  uncertainty k = 0.490358
        35        34        39        46     9        0.000000        0.121610         3    ;  uncertainty k = 0.182463
        35        34        39        46     9      180.000000       -0.043715         4    ;  uncertainty k = 0.054548
        35        36        37        38     9        0.000000       -2.931117         1    ;  uncertainty k = 2.436693
        35        36        37        38     9      180.000000       -1.451129         2    ;  uncertainty k = 0.464093
        35        36        37        38     9        0.000000        1.404828         3    ;  uncertainty k = 0.130307
        35        36        37        38     9      180.000000       -0.528609         4    ;  uncertainty k = 0.249297
        35        36        37        40     9        0.000000       -2.021362         1    ;  uncertainty k = 1.008927
        35        36        37        40     9      180.000000       -1.118312         2    ;  uncertainty k = 0.472230
        35        36        37        40     9        0.000000        1.258207         3    ;  uncertainty k = 0.234248
        35        36        37        40     9      180.000000       -0.045254         4    ;  uncertainty k = 0.250793
        36        35        34        39     9        0.000000        0.282381         1    ;  uncertainty k = 0.657141
        36        35        34        39     9      180.000000       10.551064         2    ;  uncertainty k = 0.221306
        36        35        34        39     9        0.000000        1.077819         3    ;  uncertainty k = 0.516713
        36        35        34        39     9      180.000000        0.991474         4    ;  uncertainty k = 0.186199
        36        37        38        39     9        0.000000       -4.350974         1    ;  uncertainty k = 2.057076
        36        37        38        39     9      180.000000       -1.496991         2    ;  uncertainty k = 0.799614
        36        37        38        39     9        0.000000        0.281379         3    ;  uncertainty k = 0.338606
        36        37        38        39     9      180.000000       -0.187310         4    ;  uncertainty k = 0.252807
        36        37        38        43     9        0.000000       -6.987612         1    ;  uncertainty k = 0.982733
        36        37        38        43     9      180.000000       -0.297910         2    ;  uncertainty k = 0.446998
        36        37        38        43     9        0.000000        0.675891         3    ;  uncertainty k = 0.207193
        36        37        38        43     9      180.000000       -0.045061         4    ;  uncertainty k = 0.100310
        36        37        38        44     9        0.000000       -6.987612         1    ;  uncertainty k = 0.982733
        36        37        38        44     9      180.000000       -0.297910         2    ;  uncertainty k = 0.446998
        36        37        38        44     9        0.000000        0.675891         3    ;  uncertainty k = 0.207193
        36        37        38        44     9      180.000000       -0.045061         4    ;  uncertainty k = 0.100310
        36        37        40        47     9        0.000000       -4.178510         1    ;  uncertainty k = 0.410688
        36        37        40        47     9      180.000000       -2.187807         2    ;  uncertainty k = 0.398638
        36        37        40        47     9        0.000000        1.157619         3    ;  uncertainty k = 0.069416
        36        37        40        47     9      180.000000        0.075129         4    ;  uncertainty k = 0.097696
        36        37        40        48     9        0.000000       -4.178510         1    ;  uncertainty k = 0.410688
        36        37        40        48     9      180.000000       -2.187807         2    ;  uncertainty k = 0.398638
        36        37        40        48     9        0.000000        1.157619         3    ;  uncertainty k = 0.069416
        36        37        40        48     9      180.000000        0.075129         4    ;  uncertainty k = 0.097696
        36        37        40        49     9        0.000000       -4.178510         1    ;  uncertainty k = 0.410688
        36        37        40        49     9      180.000000       -2.187807         2    ;  uncertainty k = 0.398638
        36        37        40        49     9        0.000000        1.157619         3    ;  uncertainty k = 0.069416
        36        37        40        49     9      180.000000        0.075129         4    ;  uncertainty k = 0.097696
        37        38        39        45     9        0.000000       -0.446420         1    ;  uncertainty k = 0.389425
        37        38        39        45     9      180.000000       -0.446895         2    ;  uncertainty k = 0.443633
        37        38        39        45     9        0.000000        1.043482         3    ;  uncertainty k = 0.139130
        37        38        39        45     9      180.000000       -0.054508         4    ;  uncertainty k = 0.166266
        37        38        39        46     9        0.000000       -0.446420         1    ;  uncertainty k = 0.389425
        37        38        39        46     9      180.000000       -0.446895         2    ;  uncertainty k = 0.443633
        37        38        39        46     9        0.000000        1.043482         3    ;  uncertainty k = 0.139130
        37        38        39        46     9      180.000000       -0.054508         4    ;  uncertainty k = 0.166266
        38        37        36        41     9        0.000000       -4.951174         1    ;  uncertainty k = 1.276230
        38        37        36        41     9      180.000000       -0.772512         2    ;  uncertainty k = 0.594344
        38        37        36        41     9        0.000000        0.687582         3    ;  uncertainty k = 0.234878
        38        37        36        41     9      180.000000        0.165440         4    ;  uncertainty k = 0.126758
        38        37        36        42     9        0.000000       -4.951174         1    ;  uncertainty k = 1.276230
        38        37        36        42     9      180.000000       -0.772512         2    ;  uncertainty k = 0.594344
        38        37        36        42     9        0.000000        0.687582         3    ;  uncertainty k = 0.234878
        38        37        36        42     9      180.000000        0.165440         4    ;  uncertainty k = 0.126758
        38        37        40        47     9        0.000000       -4.259086         1    ;  uncertainty k = 0.974846
        38        37        40        47     9      180.000000       -2.027003         2    ;  uncertainty k = 0.417753
        38        37        40        47     9        0.000000        1.017651         3    ;  uncertainty k = 0.103023
        38        37        40        47     9      180.000000        0.065258         4    ;  uncertainty k = 0.091860
        38        37        40        48     9        0.000000       -4.259086         1    ;  uncertainty k = 0.974846
        38        37        40        48     9      180.000000       -2.027003         2    ;  uncertainty k = 0.417753
        38        37        40        48     9        0.000000        1.017651         3    ;  uncertainty k = 0.103023
        38        37        40        48     9      180.000000        0.065258         4    ;  uncertainty k = 0.091860
        38        37        40        49     9        0.000000       -4.259086         1    ;  uncertainty k = 0.974846
        38        37        40        49     9      180.000000       -2.027003         2    ;  uncertainty k = 0.417753
        38        37        40        49     9        0.000000        1.017651         3    ;  uncertainty k = 0.103023
        38        37        40        49     9      180.000000        0.065258         4    ;  uncertainty k = 0.091860
        39        38        37        40     9        0.000000       -2.366425         1    ;  uncertainty k = 0.799682
        39        38        37        40     9      180.000000       -0.858215         2    ;  uncertainty k = 0.575132
        39        38        37        40     9        0.000000        0.300582         3    ;  uncertainty k = 0.302529
        39        38        37        40     9      180.000000        0.326407         4    ;  uncertainty k = 0.081722
        40        37        36        41     9        0.000000       -2.503106         1    ;  uncertainty k = 0.610923
        40        37        36        41     9      180.000000       -1.207857         2    ;  uncertainty k = 0.461275
        40        37        36        41     9        0.000000        0.607046         3    ;  uncertainty k = 0.147323
        40        37        36        41     9      180.000000        0.178325         4    ;  uncertainty k = 0.088460
        40        37        36        42     9        0.000000       -2.503106         1    ;  uncertainty k = 0.610923
        40        37        36        42     9      180.000000       -1.207857         2    ;  uncertainty k = 0.461275
        40        37        36        42     9        0.000000        0.607046         3    ;  uncertainty k = 0.147323
        40        37        36        42     9      180.000000        0.178325         4    ;  uncertainty k = 0.088460
        40        37        38        43     9        0.000000       -3.143701         1    ;  uncertainty k = 0.576024
        40        37        38        43     9      180.000000       -1.381403         2    ;  uncertainty k = 0.223671
        40        37        38        43     9        0.000000        0.354530         3    ;  uncertainty k = 0.126408
        40        37        38        43     9      180.000000        0.148173         4    ;  uncertainty k = 0.137426
        40        37        38        44     9        0.000000       -3.143701         1    ;  uncertainty k = 0.576024
        40        37        38        44     9      180.000000       -1.381403         2    ;  uncertainty k = 0.223671
        40        37        38        44     9        0.000000        0.354530         3    ;  uncertainty k = 0.126408
        40        37        38        44     9      180.000000        0.148173         4    ;  uncertainty k = 0.137426
        43        38        39        45     9        0.000000       -0.690419         1    ;  uncertainty k = 0.249272
        43        38        39        45     9      180.000000        0.819889         2    ;  uncertainty k = 0.297922
        43        38        39        45     9        0.000000        0.232501         3    ;  uncertainty k = 0.086816
        43        38        39        45     9      180.000000       -0.277806         4    ;  uncertainty k = 0.067741
        43        38        39        46     9        0.000000       -0.690419         1    ;  uncertainty k = 0.249272
        43        38        39        46     9      180.000000        0.819889         2    ;  uncertainty k = 0.297922
        43        38        39        46     9        0.000000        0.232501         3    ;  uncertainty k = 0.086816
        43        38        39        46     9      180.000000       -0.277806         4    ;  uncertainty k = 0.067741
        44        38        39        45     9        0.000000       -0.690419         1    ;  uncertainty k = 0.249272
        44        38        39        45     9      180.000000        0.819889         2    ;  uncertainty k = 0.297922
        44        38        39        45     9        0.000000        0.232501         3    ;  uncertainty k = 0.086816
        44        38        39        45     9      180.000000       -0.277806         4    ;  uncertainty k = 0.067741
        44        38        39        46     9        0.000000       -0.690419         1    ;  uncertainty k = 0.249272
        44        38        39        46     9      180.000000        0.819889         2    ;  uncertainty k = 0.297922
        44        38        39        46     9        0.000000        0.232501         3    ;  uncertainty k = 0.086816
        44        38        39        46     9      180.000000       -0.277806         4    ;  uncertainty k = 0.067741
        50        18        17        55     9        0.000000        2.074967         1    ;  uncertainty k = 0.921198
        50        18        17        55     9      180.000000       -0.794571         2    ;  uncertainty k = 0.180952
        50        18        17        55     9        0.000000        0.466866         3    ;  uncertainty k = 0.273235
        50        18        17        55     9      180.000000        0.035537         4    ;  uncertainty k = 0.093276
        50        18        17        56     9        0.000000        2.074967         1    ;  uncertainty k = 0.921198
        50        18        17        56     9      180.000000       -0.794571         2    ;  uncertainty k = 0.180952
        50        18        17        56     9        0.000000        0.466866         3    ;  uncertainty k = 0.273235
        50        18        17        56     9      180.000000        0.035537         4    ;  uncertainty k = 0.093276
        50        18        19        58     9        0.000000        2.252951         1    ;  uncertainty k = 0.998081
        50        18        19        58     9      180.000000       -0.859965         2    ;  uncertainty k = 0.120364
        50        18        19        58     9        0.000000        0.534711         3    ;  uncertainty k = 0.219264
        50        18        19        58     9      180.000000        0.057172         4    ;  uncertainty k = 0.086080
        50        18        19        59     9        0.000000        2.252951         1    ;  uncertainty k = 0.998081
        50        18        19        59     9      180.000000       -0.859965         2    ;  uncertainty k = 0.120364
        50        18        19        59     9        0.000000        0.534711         3    ;  uncertainty k = 0.219264
        50        18        19        59     9      180.000000        0.057172         4    ;  uncertainty k = 0.086080
        50        52        53        62     9        0.000000        0.159650         1    ;  uncertainty k = 0.146342
        50        52        53        62     9      180.000000       -0.144813         2    ;  uncertainty k = 0.094204
        50        52        53        62     9        0.000000        0.215227         3    ;  uncertainty k = 0.050987
        50        52        53        62     9      180.000000        0.244118         4    ;  uncertainty k = 0.052779
        50        52        53        63     9        0.000000        0.159650         1    ;  uncertainty k = 0.146342
        50        52        53        63     9      180.000000       -0.144813         2    ;  uncertainty k = 0.094204
        50        52        53        63     9        0.000000        0.215227         3    ;  uncertainty k = 0.050987
        50        52        53        63     9      180.000000        0.244118         4    ;  uncertainty k = 0.052779
        50        52        53        64     9        0.000000        0.159650         1    ;  uncertainty k = 0.146342
        50        52        53        64     9      180.000000       -0.144813         2    ;  uncertainty k = 0.094204
        50        52        53        64     9        0.000000        0.215227         3    ;  uncertainty k = 0.050987
        50        52        53        64     9      180.000000        0.244118         4    ;  uncertainty k = 0.052779
        50        52        54        65     9        0.000000        0.159650         1    ;  uncertainty k = 0.146342
        50        52        54        65     9      180.000000       -0.144813         2    ;  uncertainty k = 0.094204
        50        52        54        65     9        0.000000        0.215227         3    ;  uncertainty k = 0.050987
        50        52        54        65     9      180.000000        0.244118         4    ;  uncertainty k = 0.052779
        50        52        54        66     9        0.000000        0.159650         1    ;  uncertainty k = 0.146342
        50        52        54        66     9      180.000000       -0.144813         2    ;  uncertainty k = 0.094204
        50        52        54        66     9        0.000000        0.215227         3    ;  uncertainty k = 0.050987
        50        52        54        66     9      180.000000        0.244118         4    ;  uncertainty k = 0.052779
        50        52        54        67     9        0.000000        0.159650         1    ;  uncertainty k = 0.146342
        50        52        54        67     9      180.000000       -0.144813         2    ;  uncertainty k = 0.094204
        50        52        54        67     9        0.000000        0.215227         3    ;  uncertainty k = 0.050987
        50        52        54        67     9      180.000000        0.244118         4    ;  uncertainty k = 0.052779
        51        50        18        57     9        0.000000       -0.646773         1    ;  uncertainty k = 0.397646
        51        50        18        57     9      180.000000        3.762065         2    ;  uncertainty k = 0.492695
        51        50        18        57     9        0.000000        1.483897         3    ;  uncertainty k = 0.235291
        51        50        18        57     9      180.000000       -0.025919         4    ;  uncertainty k = 0.096422
        51        50        52        53     9        0.000000        6.844605         1    ;  uncertainty k = 0.882211
        51        50        52        53     9      180.000000       19.790839         2    ;  uncertainty k = 0.105250
        51        50        52        53     9        0.000000       -0.220230         3    ;  uncertainty k = 0.161100
        51        50        52        53     9      180.000000       -1.123904         4    ;  uncertainty k = 0.136735
        51        50        52        54     9        0.000000        6.844605         1    ;  uncertainty k = 0.882211
        51        50        52        54     9      180.000000       19.790839         2    ;  uncertainty k = 0.105250
        51        50        52        54     9        0.000000       -0.220230         3    ;  uncertainty k = 0.161100
        51        50        52        54     9      180.000000       -1.123904         4    ;  uncertainty k = 0.136735
        52        50        18        57     9        0.000000       -0.975826         1    ;  uncertainty k = 0.419407
        52        50        18        57     9      180.000000        2.303974         2    ;  uncertainty k = 0.241164
        52        50        18        57     9        0.000000        0.361698         3    ;  uncertainty k = 0.116719
        52        50        18        57     9      180.000000        0.170218         4    ;  uncertainty k = 0.047482
        53        52        54        65     9        0.000000       -0.681994         1    ;  uncertainty k = 0.166187
        53        52        54        65     9      180.000000       -1.033629         2    ;  uncertainty k = 0.139918
        53        52        54        65     9        0.000000        1.312135         3    ;  uncertainty k = 0.057549
        53        52        54        65     9      180.000000        0.172025         4    ;  uncertainty k = 0.029064
        53        52        54        66     9        0.000000       -0.681994         1    ;  uncertainty k = 0.166187
        53        52        54        66     9      180.000000       -1.033629         2    ;  uncertainty k = 0.139918
        53        52        54        66     9        0.000000        1.312135         3    ;  uncertainty k = 0.057549
        53        52        54        66     9      180.000000        0.172025         4    ;  uncertainty k = 0.029064
        53        52        54        67     9        0.000000       -0.681994         1    ;  uncertainty k = 0.166187
        53        52        54        67     9      180.000000       -1.033629         2    ;  uncertainty k = 0.139918
        53        52        54        67     9        0.000000        1.312135         3    ;  uncertainty k = 0.057549
        53        52        54        67     9      180.000000        0.172025         4    ;  uncertainty k = 0.029064
        54        52        53        62     9        0.000000       -0.681994         1    ;  uncertainty k = 0.166187
        54        52        53        62     9      180.000000       -1.033629         2    ;  uncertainty k = 0.139918
        54        52        53        62     9        0.000000        1.312135         3    ;  uncertainty k = 0.057549
        54        52        53        62     9      180.000000        0.172025         4    ;  uncertainty k = 0.029064
        54        52        53        63     9        0.000000       -0.681994         1    ;  uncertainty k = 0.166187
        54        52        53        63     9      180.000000       -1.033629         2    ;  uncertainty k = 0.139918
        54        52        53        63     9        0.000000        1.312135         3    ;  uncertainty k = 0.057549
        54        52        53        63     9      180.000000        0.172025         4    ;  uncertainty k = 0.029064
        54        52        53        64     9        0.000000       -0.681994         1    ;  uncertainty k = 0.166187
        54        52        53        64     9      180.000000       -1.033629         2    ;  uncertainty k = 0.139918
        54        52        53        64     9        0.000000        1.312135         3    ;  uncertainty k = 0.057549
        54        52        53        64     9      180.000000        0.172025         4    ;  uncertainty k = 0.029064
        55        17        16        68     9        0.000000        1.227188         1    ;  uncertainty k = 0.333718
        55        17        16        68     9      180.000000       -0.559059         2    ;  uncertainty k = 0.228850
        55        17        16        68     9        0.000000       -0.052658         3    ;  uncertainty k = 0.148156
        55        17        16        68     9      180.000000        0.050866         4    ;  uncertainty k = 0.043410
        55        17        18        57     9        0.000000        1.275091         1    ;  uncertainty k = 0.308666
        55        17        18        57     9      180.000000       -0.191825         2    ;  uncertainty k = 0.161770
        55        17        18        57     9        0.000000       -0.005639         3    ;  uncertainty k = 0.106020
        55        17        18        57     9      180.000000        0.069270         4    ;  uncertainty k = 0.064132
        56        17        16        68     9        0.000000        1.227188         1    ;  uncertainty k = 0.333718
        56        17        16        68     9      180.000000       -0.559059         2    ;  uncertainty k = 0.228850
        56        17        16        68     9        0.000000       -0.052658         3    ;  uncertainty k = 0.148156
        56        17        16        68     9      180.000000        0.050866         4    ;  uncertainty k = 0.043410
        56        17        18        57     9        0.000000        1.275091         1    ;  uncertainty k = 0.308666
        56        17        18        57     9      180.000000       -0.191825         2    ;  uncertainty k = 0.161770
        56        17        18        57     9        0.000000       -0.005639         3    ;  uncertainty k = 0.106020
        56        17        18        57     9      180.000000        0.069270         4    ;  uncertainty k = 0.064132
        57        18        19        58     9        0.000000        1.375228         1    ;  uncertainty k = 0.292892
        57        18        19        58     9      180.000000       -0.112288         2    ;  uncertainty k = 0.227466
        57        18        19        58     9        0.000000       -0.024960         3    ;  uncertainty k = 0.142904
        57        18        19        58     9      180.000000        0.069958         4    ;  uncertainty k = 0.050452
        57        18        19        59     9        0.000000        1.375228         1    ;  uncertainty k = 0.292892
        57        18        19        59     9      180.000000       -0.112288         2    ;  uncertainty k = 0.227466
        57        18        19        59     9        0.000000       -0.024960         3    ;  uncertainty k = 0.142904
        57        18        19        59     9      180.000000        0.069958         4    ;  uncertainty k = 0.050452
        58        19        20        60     9        0.000000        2.326715         1    ;  uncertainty k = 0.674870
        58        19        20        60     9      180.000000       -0.090546         2    ;  uncertainty k = 0.158885
        58        19        20        60     9        0.000000        0.306144         3    ;  uncertainty k = 0.135782
        58        19        20        60     9      180.000000        0.130862         4    ;  uncertainty k = 0.038651
        58        19        20        61     9        0.000000        2.326715         1    ;  uncertainty k = 0.674870
        58        19        20        61     9      180.000000       -0.090546         2    ;  uncertainty k = 0.158885
        58        19        20        61     9        0.000000        0.306144         3    ;  uncertainty k = 0.135782
        58        19        20        61     9      180.000000        0.130862         4    ;  uncertainty k = 0.038651
        59        19        20        60     9        0.000000        2.326715         1    ;  uncertainty k = 0.674870
        59        19        20        60     9      180.000000       -0.090546         2    ;  uncertainty k = 0.158885
        59        19        20        60     9        0.000000        0.306144         3    ;  uncertainty k = 0.135782
        59        19        20        60     9      180.000000        0.130862         4    ;  uncertainty k = 0.038651
        59        19        20        61     9        0.000000        2.326715         1    ;  uncertainty k = 0.674870
        59        19        20        61     9      180.000000       -0.090546         2    ;  uncertainty k = 0.158885
        59        19        20        61     9        0.000000        0.306144         3    ;  uncertainty k = 0.135782
        59        19        20        61     9      180.000000        0.130862         4    ;  uncertainty k = 0.038651

[ dihedrals ] ; impropers
;       ai        aj        ak        al funct           phase               k        pn
         1         3         7        11     4      180.000000        6.743803         2    ;  uncertainty k = 0.312309
         1         7        11         3     4      180.000000        6.743803         2    ;  uncertainty k = 0.312309
         1        11         3         7     4      180.000000        6.743803         2    ;  uncertainty k = 0.312309
         3         1         4         8     4      180.000000       16.752297         2    ;  uncertainty k = 0.175140
         3         4         8         1     4      180.000000       16.752297         2    ;  uncertainty k = 0.175140
         3         8         1         4     4      180.000000       16.752297         2    ;  uncertainty k = 0.175140
         5         4         6        12     4      180.000000       13.040107         2    ;  uncertainty k = 0.022313
         5         6        12         4     4      180.000000       13.040107         2    ;  uncertainty k = 0.022313
         5        12         4         6     4      180.000000       13.040107         2    ;  uncertainty k = 0.022313
         6         5         7        70     4      180.000000        1.556753         2    ;  uncertainty k = 0.665903
         6         7        70         5     4      180.000000        1.556753         2    ;  uncertainty k = 0.665903
         6        70         5         7     4      180.000000        1.556753         2    ;  uncertainty k = 0.665903
         7         1         6        27     4      180.000000       49.873602         2    ;  uncertainty k = 0.027932
         7         6        27         1     4      180.000000       49.873602         2    ;  uncertainty k = 0.027932
         7        27         1         6     4      180.000000       49.873602         2    ;  uncertainty k = 0.027932
         8         3         9        28     4      180.000000        2.162122         2    ;  uncertainty k = 0.496705
         8         9        28         3     4      180.000000        2.162122         2    ;  uncertainty k = 0.496705
         8        28         3         9     4      180.000000        2.162122         2    ;  uncertainty k = 0.496705
         9         8        10        29     4      180.000000        4.733437         2    ;  uncertainty k = 0.183714
         9        10        29         8     4      180.000000        4.733437         2    ;  uncertainty k = 0.183714
         9        29         8        10     4      180.000000        4.733437         2    ;  uncertainty k = 0.183714
        10         2         9        11     4      180.000000       12.132529         2    ;  uncertainty k = 0.064852
        10         9        11         2     4      180.000000       12.132529         2    ;  uncertainty k = 0.064852
        10        11         2         9     4      180.000000       12.132529         2    ;  uncertainty k = 0.064852
        11         1        10        30     4      180.000000        4.934976         2    ;  uncertainty k = 0.181084
        11        10        30         1     4      180.000000        4.934976         2    ;  uncertainty k = 0.181084
        11        30         1        10     4      180.000000        4.934976         2    ;  uncertainty k = 0.181084
        12         5        13        15     4      180.000000       49.904481         2    ;  uncertainty k = 0.042492
        12        13        15         5     4      180.000000       49.904481         2    ;  uncertainty k = 0.042492
        12        15         5        13     4      180.000000       49.904481         2    ;  uncertainty k = 0.042492
        22        21        23        24     4      180.000000       49.476644         2    ;  uncertainty k = 0.014914
        22        23        24        21     4      180.000000       49.476644         2    ;  uncertainty k = 0.014914
        22        24        21        23     4      180.000000       49.476644         2    ;  uncertainty k = 0.014914
        23        22        25        26     4      180.000000        4.762177         2    ;  uncertainty k = 0.485670
        23        25        26        22     4      180.000000        4.762177         2    ;  uncertainty k = 0.485670
        23        26        22        25     4      180.000000        4.762177         2    ;  uncertainty k = 0.485670
        34        25        35        39     4      180.000000       10.302524         2    ;  uncertainty k = 0.235813
        34        35        39        25     4      180.000000       10.302524         2    ;  uncertainty k = 0.235813
        34        39        25        35     4      180.000000       10.302524         2    ;  uncertainty k = 0.235813
        35        26        34        36     4      180.000000        2.894551         2    ;  uncertainty k = 0.672593
        35        34        36        26     4      180.000000        2.894551         2    ;  uncertainty k = 0.672593
        35        36        26        34     4      180.000000        2.894551         2    ;  uncertainty k = 0.672593
        50        18        51        52     4      180.000000       51.316640         2    ;  uncertainty k = 0.028239
        50        51        52        18     4      180.000000       51.316640         2    ;  uncertainty k = 0.028239
        50        52        18        51     4      180.000000       51.316640         2    ;  uncertainty k = 0.028239

[ pairs ]
;       ai        aj funct
         1         2     1
         1         5     1
         1         9     1
         1        28     1
         1        69     1
         1        70     1
         2         8     1
         2        29     1
         2        30     1
         3         6     1
         3        10     1
         3        12     1
         3        27     1
         3        29     1
         3        30     1
         4         7     1
         4         9     1
         4        11     1
         4        13     1
         4        15     1
         4        28     1
         4        70     1
         5         8     1
         5        14     1
         5        27     1
         5        31     1
         6        11     1
         6        13     1
         6        15     1
         6        69     1
         7         8     1
         7        10     1
         7        12     1
         7        30     1
         8        11     1
         8        69     1
         9        30     1
        10        28     1
        11        27     1
        11        29     1
        12        16     1
        12        20     1
        12        32     1
        12        69     1
        12        70     1
        13        17     1
        13        19     1
        13        21     1
        13        60     1
        13        61     1
        13        68     1
        14        15     1
        14        18     1
        14        22     1
        14        33     1
        14        55     1
        14        56     1
        14        58     1
        14        59     1
        15        31     1
        16        19     1
        16        23     1
        16        24     1
        16        31     1
        16        50     1
        16        57     1
        16        60     1
        16        61     1
        17        20     1
        17        22     1
        17        32     1
        17        33     1
        17        51     1
        17        52     1
        17        58     1
        17        59     1
        18        21     1
        18        53     1
        18        54     1
        18        60     1
        18        61     1
        18        68     1
        19        32     1
        19        51     1
        19        52     1
        19        55     1
        19        56     1
        20        21     1
        20        31     1
        20        50     1
        20        57     1
        20        68     1
        21        25     1
        21        26     1
        21        32     1
        21        55     1
        21        56     1
        22        34     1
        22        35     1
        22        68     1
        23        33     1
        23        36     1
        23        39     1
        24        25     1
        24        26     1
        24        33     1
        25        36     1
        25        38     1
        25        45     1
        25        46     1
        26        37     1
        26        39     1
        26        41     1
        26        42     1
        27        70     1
        28        29     1
        31        32     1
        32        60     1
        32        61     1
        32        68     1
        33        68     1
        34        37     1
        34        41     1
        34        42     1
        34        43     1
        34        44     1
        35        38     1
        35        40     1
        35        45     1
        35        46     1
        36        39     1
        36        43     1
        36        44     1
        36        47     1
        36        48     1
        36        49     1
        37        45     1
        37        46     1
        38        41     1
        38        42     1
        38        47     1
        38        48     1
        38        49     1
        39        40     1
        40        41     1
        40        42     1
        40        43     1
        40        44     1
        43        45     1
        43        46     1
        44        45     1
        44        46     1
        50        55     1
        50        56     1
        50        58     1
        50        59     1
        50        62     1
        50        63     1
        50        64     1
        50        65     1
        50        66     1
        50        67     1
        51        53     1
        51        54     1
        51        57     1
        52        57     1
        53        65     1
        53        66     1
        53        67     1
        54        62     1
        54        63     1
        54        64     1
        55        57     1
        55        68     1
        56        57     1
        56        68     1
        57        58     1
        57        59     1
        58        60     1
        58        61     1
        59        60     1
        59        61     1
