; ITP file created by ByteFF-joint-25, 2025-07-14 11:37:36.075665

[ atomtypes ]
;name           bonded.type        at.num        mass        charge   ptype           sigma         epsilon
 c0bf                                   6      0.0000       0.00000       A     3.31528e-01     4.13097e-01    ;  uncertainty sigma = 0.000017, epsilon = 0.002269
 cl1bf                                 17      0.0000       0.00000       A     3.46597e-01     1.10389e+00    ;  uncertainty sigma = 0.000012, epsilon = 0.000891
 c2bf                                   6      0.0000       0.00000       A     3.31526e-01     4.13234e-01    ;  uncertainty sigma = 0.000010, epsilon = 0.000868
 c3bf                                   6      0.0000       0.00000       A     3.31465e-01     4.13040e-01    ;  uncertainty sigma = 0.000022, epsilon = 0.000468
 c4bf                                   6      0.0000       0.00000       A     3.31537e-01     4.12879e-01    ;  uncertainty sigma = 0.000028, epsilon = 0.001026
 c5bf                                   6      0.0000       0.00000       A     3.31538e-01     4.14034e-01    ;  uncertainty sigma = 0.000006, epsilon = 0.001249
 n6bf                                   7      0.0000       0.00000       A     3.27114e-01     4.90854e-01    ;  uncertainty sigma = 0.000023, epsilon = 0.001414
 c7bf                                   6      0.0000       0.00000       A     3.31522e-01     4.13395e-01    ;  uncertainty sigma = 0.000005, epsilon = 0.000610
 c8bf                                   6      0.0000       0.00000       A     3.31526e-01     4.13388e-01    ;  uncertainty sigma = 0.000005, epsilon = 0.000462
 c9bf                                   6      0.0000       0.00000       A     3.31513e-01     4.13007e-01    ;  uncertainty sigma = 0.000006, epsilon = 0.000578
 c10bf                                  6      0.0000       0.00000       A     3.31529e-01     4.13002e-01    ;  uncertainty sigma = 0.000003, epsilon = 0.000618
 c11bf                                  6      0.0000       0.00000       A     3.31516e-01     4.12630e-01    ;  uncertainty sigma = 0.000033, epsilon = 0.001555
 n12bf                                  7      0.0000       0.00000       A     3.26979e-01     4.89237e-01    ;  uncertainty sigma = 0.000036, epsilon = 0.002607
 c13bf                                  6      0.0000       0.00000       A     3.39788e-01     4.50817e-01    ;  uncertainty sigma = 0.000020, epsilon = 0.000916
 o14bf                                  8      0.0000       0.00000       A     3.04830e-01     6.12332e-01    ;  uncertainty sigma = 0.000022, epsilon = 0.000812
 c15bf                                  6      0.0000       0.00000       A     3.39779e-01     4.50691e-01    ;  uncertainty sigma = 0.000021, epsilon = 0.001068
 c16bf                                  6      0.0000       0.00000       A     3.39785e-01     4.51177e-01    ;  uncertainty sigma = 0.000013, epsilon = 0.000568
 c17bf                                  6      0.0000       0.00000       A     3.39788e-01     4.50813e-01    ;  uncertainty sigma = 0.000005, epsilon = 0.001015
 c18bf                                  6      0.0000       0.00000       A     3.39784e-01     4.51089e-01    ;  uncertainty sigma = 0.000005, epsilon = 0.000646
 c19bf                                  6      0.0000       0.00000       A     3.39763e-01     4.50994e-01    ;  uncertainty sigma = 0.000009, epsilon = 0.000666
 n20bf                                  7      0.0000       0.00000       A     3.27037e-01     4.89849e-01    ;  uncertainty sigma = 0.000029, epsilon = 0.003194
 c21bf                                  6      0.0000       0.00000       A     3.31529e-01     4.12690e-01    ;  uncertainty sigma = 0.000018, epsilon = 0.001128
 c22bf                                  6      0.0000       0.00000       A     3.31525e-01     4.13652e-01    ;  uncertainty sigma = 0.000013, epsilon = 0.001225
 o23bf                                  8      0.0000       0.00000       A     3.04890e-01     6.12219e-01    ;  uncertainty sigma = 0.000024, epsilon = 0.000874
 n24bf                                  7      0.0000       0.00000       A     3.38354e-01     3.93161e-01    ;  uncertainty sigma = 0.000020, epsilon = 0.001245
 s25bf                                 16      0.0000       0.00000       A     3.53288e-01     1.18179e+00    ;  uncertainty sigma = 0.000032, epsilon = 0.002346
 h26bf                                  1      0.0000       0.00000       A     2.62544e-01     6.66847e-02    ;  uncertainty sigma = 0.000025, epsilon = 0.000889
 h27bf                                  1      0.0000       0.00000       A     2.62561e-01     6.70263e-02    ;  uncertainty sigma = 0.000011, epsilon = 0.000439
 h28bf                                  1      0.0000       0.00000       A     2.62554e-01     6.70089e-02    ;  uncertainty sigma = 0.000010, epsilon = 0.000673
 h29bf                                  1      0.0000       0.00000       A     2.62577e-01     6.69548e-02    ;  uncertainty sigma = 0.000008, epsilon = 0.000704
 h30bf                                  1      0.0000       0.00000       A     1.10650e-01     4.15088e-02    ;  uncertainty sigma = 0.000077, epsilon = 0.000874
 h31bf                                  1      0.0000       0.00000       A     2.42165e-01     8.67649e-02    ;  uncertainty sigma = 0.000033, epsilon = 0.001355
 h32bf                                  1      0.0000       0.00000       A     1.10666e-01     4.15404e-02    ;  uncertainty sigma = 0.000113, epsilon = 0.000907
 c33bf                                  6      0.0000       0.00000       A     3.31531e-01     4.13284e-01    ;  uncertainty sigma = 0.000022, epsilon = 0.000692
 c34bf                                  6      0.0000       0.00000       A     3.31510e-01     4.13232e-01    ;  uncertainty sigma = 0.000021, epsilon = 0.000971
 c35bf                                  6      0.0000       0.00000       A     3.39772e-01     4.51291e-01    ;  uncertainty sigma = 0.000007, epsilon = 0.001369
 n36bf                                  7      0.0000       0.00000       A     3.36491e-01     3.58344e-01    ;  uncertainty sigma = 0.000019, epsilon = 0.001758
 c37bf                                  6      0.0000       0.00000       A     3.39770e-01     4.51225e-01    ;  uncertainty sigma = 0.000009, epsilon = 0.000671
 c38bf                                  6      0.0000       0.00000       A     3.39762e-01     4.51164e-01    ;  uncertainty sigma = 0.000008, epsilon = 0.001424
 c39bf                                  6      0.0000       0.00000       A     3.39770e-01     4.51318e-01    ;  uncertainty sigma = 0.000003, epsilon = 0.000740
 h40bf                                  1      0.0000       0.00000       A     2.42250e-01     8.62902e-02    ;  uncertainty sigma = 0.000037, epsilon = 0.000964
 h41bf                                  1      0.0000       0.00000       A     2.42250e-01     8.62902e-02    ;  uncertainty sigma = 0.000037, epsilon = 0.000964
 h42bf                                  1      0.0000       0.00000       A     2.42218e-01     8.69005e-02    ;  uncertainty sigma = 0.000021, epsilon = 0.000739
 h43bf                                  1      0.0000       0.00000       A     2.42218e-01     8.69005e-02    ;  uncertainty sigma = 0.000021, epsilon = 0.000739
 h44bf                                  1      0.0000       0.00000       A     2.60015e-01     8.68230e-02    ;  uncertainty sigma = 0.000020, epsilon = 0.000739
 h45bf                                  1      0.0000       0.00000       A     2.60015e-01     8.68230e-02    ;  uncertainty sigma = 0.000020, epsilon = 0.000739
 h46bf                                  1      0.0000       0.00000       A     2.42198e-01     8.68693e-02    ;  uncertainty sigma = 0.000014, epsilon = 0.000543
 h47bf                                  1      0.0000       0.00000       A     2.42198e-01     8.68693e-02    ;  uncertainty sigma = 0.000014, epsilon = 0.000543
 h48bf                                  1      0.0000       0.00000       A     2.42198e-01     8.68693e-02    ;  uncertainty sigma = 0.000014, epsilon = 0.000543
 c49bf                                  6      0.0000       0.00000       A     3.31545e-01     4.13066e-01    ;  uncertainty sigma = 0.000011, epsilon = 0.001034
 o50bf                                  8      0.0000       0.00000       A     3.04819e-01     6.12467e-01    ;  uncertainty sigma = 0.000013, epsilon = 0.000996
 n51bf                                  7      0.0000       0.00000       A     3.18136e-01     6.84509e-01    ;  uncertainty sigma = 0.000019, epsilon = 0.001339
 c52bf                                  6      0.0000       0.00000       A     3.39777e-01     4.50876e-01    ;  uncertainty sigma = 0.000006, epsilon = 0.000504
 c53bf                                  6      0.0000       0.00000       A     3.39777e-01     4.50876e-01    ;  uncertainty sigma = 0.000006, epsilon = 0.000504
 h54bf                                  1      0.0000       0.00000       A     2.60016e-01     8.65219e-02    ;  uncertainty sigma = 0.000021, epsilon = 0.000613
 h55bf                                  1      0.0000       0.00000       A     2.60016e-01     8.65219e-02    ;  uncertainty sigma = 0.000021, epsilon = 0.000613
 h56bf                                  1      0.0000       0.00000       A     2.60030e-01     8.70270e-02    ;  uncertainty sigma = 0.000011, epsilon = 0.000538
 h57bf                                  1      0.0000       0.00000       A     2.60020e-01     8.66352e-02    ;  uncertainty sigma = 0.000016, epsilon = 0.000625
 h58bf                                  1      0.0000       0.00000       A     2.60020e-01     8.66352e-02    ;  uncertainty sigma = 0.000016, epsilon = 0.000625
 h59bf                                  1      0.0000       0.00000       A     2.60024e-01     8.67210e-02    ;  uncertainty sigma = 0.000008, epsilon = 0.000629
 h60bf                                  1      0.0000       0.00000       A     2.60024e-01     8.67210e-02    ;  uncertainty sigma = 0.000008, epsilon = 0.000629
 h61bf                                  1      0.0000       0.00000       A     2.42196e-01     8.67627e-02    ;  uncertainty sigma = 0.000011, epsilon = 0.000510
 h62bf                                  1      0.0000       0.00000       A     2.42196e-01     8.67627e-02    ;  uncertainty sigma = 0.000011, epsilon = 0.000510
 h63bf                                  1      0.0000       0.00000       A     2.42196e-01     8.67627e-02    ;  uncertainty sigma = 0.000011, epsilon = 0.000510
 h64bf                                  1      0.0000       0.00000       A     2.42196e-01     8.67627e-02    ;  uncertainty sigma = 0.000011, epsilon = 0.000510
 h65bf                                  1      0.0000       0.00000       A     2.42196e-01     8.67627e-02    ;  uncertainty sigma = 0.000011, epsilon = 0.000510
 h66bf                                  1      0.0000       0.00000       A     2.42196e-01     8.67627e-02    ;  uncertainty sigma = 0.000011, epsilon = 0.000510
 h67bf                                  1      0.0000       0.00000       A     2.42143e-01     8.68216e-02    ;  uncertainty sigma = 0.000035, epsilon = 0.001353
 o68bf                                  8      0.0000       0.00000       A     3.04808e-01     6.12084e-01    ;  uncertainty sigma = 0.000022, epsilon = 0.001499
 h69bf                                  1      0.0000       0.00000       A     1.10649e-01     4.11542e-02    ;  uncertainty sigma = 0.000059, epsilon = 0.000617

[ moleculetype ]
;name             nrexcl
 MOL                   3

[ atoms ]
;       nr            type      resi   res      atom      cgnr      charge          mass ; qtot
         1            c0bf         1   UNL        c0         1     0.13103       12.0110 ; qtot    0.131
         2           cl1bf         1   UNL       cl1         2    -0.10532       35.4530 ; qtot    0.026
         3            c2bf         1   UNL        c2         3    -0.14663       12.0110 ; qtot   -0.121
         4            c3bf         1   UNL        c3         4     0.03800       12.0110 ; qtot   -0.083
         5            c4bf         1   UNL        c4         5    -0.26622       12.0110 ; qtot   -0.349
         6            c5bf         1   UNL        c5         6     0.72372       12.0110 ; qtot    0.375
         7            n6bf         1   UNL        n6         7    -0.43549       14.0070 ; qtot   -0.061
         8            c7bf         1   UNL        c7         8    -0.04703       12.0110 ; qtot   -0.108
         9            c8bf         1   UNL        c8         9    -0.15490       12.0110 ; qtot   -0.263
        10            c9bf         1   UNL        c9        10     0.07746       12.0110 ; qtot   -0.185
        11           c10bf         1   UNL       c10        11    -0.18062       12.0110 ; qtot   -0.366
        12           c11bf         1   UNL       c11        12     0.68536       12.0110 ; qtot    0.319
        13           n12bf         1   UNL       n12        13    -0.56100       14.0070 ; qtot   -0.242
        14           c13bf         1   UNL       c13        14     0.10375       12.0110 ; qtot   -0.138
        15           o14bf         1   UNL       o14        15    -0.62231       15.9990 ; qtot   -0.760
        16           c15bf         1   UNL       c15        16     0.10482       12.0110 ; qtot   -0.655
        17           c16bf         1   UNL       c16        17    -0.07517       12.0110 ; qtot   -0.731
        18           c17bf         1   UNL       c17        18    -0.13250       12.0110 ; qtot   -0.863
        19           c18bf         1   UNL       c18        19    -0.06578       12.0110 ; qtot   -0.929
        20           c19bf         1   UNL       c19        20    -0.08746       12.0110 ; qtot   -1.016
        21           n20bf         1   UNL       n20        21    -0.55641       14.0070 ; qtot   -1.573
        22           c21bf         1   UNL       c21        22     0.59414       12.0110 ; qtot   -0.979
        23           c22bf         1   UNL       c22        23     0.37509       12.0110 ; qtot   -0.603
        24           o23bf         1   UNL       o23        24    -0.57698       15.9990 ; qtot   -1.180
        25           n24bf         1   UNL       n24        25    -0.60853       14.0070 ; qtot   -1.789
        26           s25bf         1   UNL       s25        26    -0.11954       32.0670 ; qtot   -1.909
        27           h26bf         1   UNL       h26        27     0.16639        1.0080 ; qtot   -1.742
        28           h27bf         1   UNL       h27        28     0.14252        1.0080 ; qtot   -1.600
        29           h28bf         1   UNL       h28        29     0.15493        1.0080 ; qtot   -1.445
        30           h29bf         1   UNL       h29        30     0.15526        1.0080 ; qtot   -1.289
        31           h30bf         1   UNL       h30        31     0.35005        1.0080 ; qtot   -0.939
        32           h31bf         1   UNL       h31        32     0.07711        1.0080 ; qtot   -0.862
        33           h32bf         1   UNL       h32        33     0.33735        1.0080 ; qtot   -0.525
        34           c33bf         1   UNL       c33        34     0.34886       12.0110 ; qtot   -0.176
        35           c34bf         1   UNL       c34        35    -0.15290       12.0110 ; qtot   -0.329
        36           c35bf         1   UNL       c35        36     0.24342       12.0110 ; qtot   -0.086
        37           n36bf         1   UNL       n36        37    -0.71265       14.0070 ; qtot   -0.798
        38           c37bf         1   UNL       c37        38     0.15896       12.0110 ; qtot   -0.639
        39           c38bf         1   UNL       c38        39    -0.11292       12.0110 ; qtot   -0.752
        40           c39bf         1   UNL       c39        40     0.14692       12.0110 ; qtot   -0.605
        41           h40bf         1   UNL       h40        41     0.05218        1.0080 ; qtot   -0.553
        42           h41bf         1   UNL       h41        42     0.05218        1.0080 ; qtot   -0.501
        43           h42bf         1   UNL       h42        43     0.04542        1.0080 ; qtot   -0.455
        44           h43bf         1   UNL       h43        44     0.04542        1.0080 ; qtot   -0.410
        45           h44bf         1   UNL       h44        45     0.06419        1.0080 ; qtot   -0.346
        46           h45bf         1   UNL       h45        46     0.06419        1.0080 ; qtot   -0.282
        47           h46bf         1   UNL       h46        47     0.03530        1.0080 ; qtot   -0.246
        48           h47bf         1   UNL       h47        48     0.03530        1.0080 ; qtot   -0.211
        49           h48bf         1   UNL       h48        49     0.03530        1.0080 ; qtot   -0.176
        50           c49bf         1   UNL       c49        50     0.67193       12.0110 ; qtot    0.496
        51           o50bf         1   UNL       o50        51    -0.60797       15.9990 ; qtot   -0.112
        52           n51bf         1   UNL       n51        52    -0.49029       14.0070 ; qtot   -0.602
        53           c52bf         1   UNL       c52        53     0.08466       12.0110 ; qtot   -0.517
        54           c53bf         1   UNL       c53        54     0.08466       12.0110 ; qtot   -0.433
        55           h54bf         1   UNL       h54        55     0.06150        1.0080 ; qtot   -0.371
        56           h55bf         1   UNL       h55        56     0.06150        1.0080 ; qtot   -0.310
        57           h56bf         1   UNL       h56        57     0.06422        1.0080 ; qtot   -0.246
        58           h57bf         1   UNL       h57        58     0.05208        1.0080 ; qtot   -0.193
        59           h58bf         1   UNL       h58        59     0.05208        1.0080 ; qtot   -0.141
        60           h59bf         1   UNL       h59        60     0.05522        1.0080 ; qtot   -0.086
        61           h60bf         1   UNL       h60        61     0.05522        1.0080 ; qtot   -0.031
        62           h61bf         1   UNL       h61        62     0.04383        1.0080 ; qtot    0.013
        63           h62bf         1   UNL       h62        63     0.04383        1.0080 ; qtot    0.057
        64           h63bf         1   UNL       h63        64     0.04383        1.0080 ; qtot    0.101
        65           h64bf         1   UNL       h64        65     0.04383        1.0080 ; qtot    0.144
        66           h65bf         1   UNL       h65        66     0.04383        1.0080 ; qtot    0.188
        67           h66bf         1   UNL       h66        67     0.04383        1.0080 ; qtot    0.232
        68           h67bf         1   UNL       h67        68     0.07881        1.0080 ; qtot    0.311
        69           o68bf         1   UNL       o68        69    -0.65006       15.9990 ; qtot   -0.339
        70           h69bf         1   UNL       h69        70     0.33920        1.0080 ; qtot   -0.000

[ bonds ]
;       ai        aj funct               r               k
         1         3     1        0.141320   328069.881348    ;  uncertainty r = 0.000092, k = 12.459547
         1         7     1        0.138212   306827.194434    ;  uncertainty r = 0.000123, k = 9.379690
         1        11     1        0.140352   356913.229199    ;  uncertainty r = 0.000040, k = 9.366025
         2        10     1        0.175394   197522.799219    ;  uncertainty r = 0.000025, k = 3.047901
         3         4     1        0.143300   242747.717529    ;  uncertainty r = 0.000133, k = 10.522217
         3         8     1        0.140768   353019.841504    ;  uncertainty r = 0.000067, k = 5.465204
         4         5     1        0.136365   423371.692139    ;  uncertainty r = 0.000083, k = 9.833080
         4        27     1        0.108614   331627.404980    ;  uncertainty r = 0.000064, k = 5.760012
         5         6     1        0.146843   240442.967871    ;  uncertainty r = 0.000176, k = 23.128507
         5        12     1        0.150919   252751.982275    ;  uncertainty r = 0.000042, k = 11.558148
         6         7     1        0.139547   395906.301172    ;  uncertainty r = 0.000158, k = 23.571534
         6        69     1        0.124635   859906.180859    ;  uncertainty r = 0.000161, k = 7.817758
         7        70     1        0.101870   436753.622656    ;  uncertainty r = 0.000037, k = 5.514660
         8         9     1        0.138684   370342.505518    ;  uncertainty r = 0.000041, k = 4.074875
         8        28     1        0.108761   334171.207520    ;  uncertainty r = 0.000024, k = 1.340924
         9        10     1        0.140511   355399.133984    ;  uncertainty r = 0.000052, k = 2.712475
         9        29     1        0.108674   335576.233740    ;  uncertainty r = 0.000015, k = 1.284620
        10        11     1        0.138958   361792.604687    ;  uncertainty r = 0.000099, k = 4.100617
        11        30     1        0.108813   339035.745947    ;  uncertainty r = 0.000018, k = 1.010888
        12        13     1        0.135992   253640.980127    ;  uncertainty r = 0.000167, k = 15.839610
        12        15     1        0.124160   760260.277930    ;  uncertainty r = 0.000102, k = 8.748088
        13        14     1        0.145534   237429.461279    ;  uncertainty r = 0.000114, k = 16.741101
        13        31     1        0.101848   405439.201953    ;  uncertainty r = 0.000124, k = 5.635139
        14        16     1        0.154149   193233.254346    ;  uncertainty r = 0.000225, k = 7.241530
        14        20     1        0.153518   200229.554053    ;  uncertainty r = 0.000087, k = 6.980344
        14        32     1        0.109367   306139.199170    ;  uncertainty r = 0.000050, k = 3.162886
        16        17     1        0.153461   198493.451978    ;  uncertainty r = 0.000128, k = 5.281574
        16        21     1        0.145732   238691.326465    ;  uncertainty r = 0.000068, k = 15.691022
        16        68     1        0.109360   306494.828955    ;  uncertainty r = 0.000054, k = 3.368977
        17        18     1        0.153721   199006.850024    ;  uncertainty r = 0.000168, k = 6.848027
        17        55     1        0.109526   310433.851465    ;  uncertainty r = 0.000043, k = 0.875064
        17        56     1        0.109526   310433.851465    ;  uncertainty r = 0.000043, k = 0.875064
        18        19     1        0.153975   202217.337109    ;  uncertainty r = 0.000087, k = 2.573046
        18        50     1        0.153156   206143.680444    ;  uncertainty r = 0.000070, k = 12.443492
        18        57     1        0.109633   309151.735352    ;  uncertainty r = 0.000051, k = 6.503762
        19        20     1        0.153317   207892.474463    ;  uncertainty r = 0.000061, k = 5.382321
        19        58     1        0.109602   308125.501074    ;  uncertainty r = 0.000021, k = 1.819146
        19        59     1        0.109602   308125.501074    ;  uncertainty r = 0.000021, k = 1.819146
        20        60     1        0.109620   309930.898096    ;  uncertainty r = 0.000025, k = 1.029525
        20        61     1        0.109620   309930.898096    ;  uncertainty r = 0.000025, k = 1.029525
        21        22     1        0.136254   291452.475586    ;  uncertainty r = 0.000129, k = 17.867731
        21        33     1        0.101616   410581.507520    ;  uncertainty r = 0.000093, k = 3.750123
        22        23     1        0.147883   259563.418848    ;  uncertainty r = 0.000125, k = 27.680344
        22        24     1        0.123538   703630.001367    ;  uncertainty r = 0.000115, k = 12.098945
        23        25     1        0.130310   434161.095312    ;  uncertainty r = 0.000085, k = 15.053236
        23        26     1        0.175563   155788.944214    ;  uncertainty r = 0.000188, k = 10.470577
        25        34     1        0.137602   299978.345996    ;  uncertainty r = 0.000211, k = 8.739575
        26        35     1        0.173396   184345.625244    ;  uncertainty r = 0.000110, k = 8.530767
        34        35     1        0.137286   397473.794482    ;  uncertainty r = 0.000034, k = 9.608965
        34        39     1        0.149948   244144.622949    ;  uncertainty r = 0.000108, k = 7.193396
        35        36     1        0.150719   237383.826465    ;  uncertainty r = 0.000089, k = 11.691948
        36        37     1        0.146397   258698.068359    ;  uncertainty r = 0.000045, k = 12.802743
        36        41     1        0.110180   303656.992139    ;  uncertainty r = 0.000048, k = 3.959665
        36        42     1        0.110180   303656.992139    ;  uncertainty r = 0.000048, k = 3.959665
        37        38     1        0.146774   246527.975830    ;  uncertainty r = 0.000088, k = 8.191406
        37        40     1        0.145874   240551.449512    ;  uncertainty r = 0.000055, k = 4.989744
        38        39     1        0.153862   211171.503149    ;  uncertainty r = 0.000061, k = 10.297044
        38        43     1        0.109933   305388.127246    ;  uncertainty r = 0.000023, k = 3.768152
        38        44     1        0.109933   305388.127246    ;  uncertainty r = 0.000023, k = 3.768152
        39        45     1        0.109729   310887.467139    ;  uncertainty r = 0.000009, k = 2.383701
        39        46     1        0.109729   310887.467139    ;  uncertainty r = 0.000009, k = 2.383701
        40        47     1        0.109858   306972.960254    ;  uncertainty r = 0.000009, k = 1.032628
        40        48     1        0.109858   306972.960254    ;  uncertainty r = 0.000009, k = 1.032628
        40        49     1        0.109858   306972.960254    ;  uncertainty r = 0.000009, k = 1.032628
        50        51     1        0.123614   736987.492969    ;  uncertainty r = 0.000035, k = 11.451192
        50        52     1        0.137582   365085.512793    ;  uncertainty r = 0.000056, k = 20.353976
        52        53     1        0.145904   250764.582275    ;  uncertainty r = 0.000013, k = 6.211512
        52        54     1        0.145904   250764.582275    ;  uncertainty r = 0.000013, k = 6.211512
        53        62     1        0.109437   311080.731982    ;  uncertainty r = 0.000014, k = 1.257584
        53        63     1        0.109437   311080.731982    ;  uncertainty r = 0.000014, k = 1.257584
        53        64     1        0.109437   311080.731982    ;  uncertainty r = 0.000014, k = 1.257584
        54        65     1        0.109437   311080.731982    ;  uncertainty r = 0.000014, k = 1.257584
        54        66     1        0.109437   311080.731982    ;  uncertainty r = 0.000014, k = 1.257590
        54        67     1        0.109437   311080.680908    ;  uncertainty r = 0.000014, k = 1.257584

[ angles ]
;       ai        aj        ak funct           theta             cth
         1         3         4     1      118.713211      447.567146    ;  uncertainty theta = 0.006819, k = 0.209432
         1         3         8     1      118.950111      453.447544    ;  uncertainty theta = 0.002285, k = 0.175361
         1         7         6     1      119.460526      481.429512    ;  uncertainty theta = 0.006427, k = 0.190398
         1         7        70     1      115.362061      316.185198    ;  uncertainty theta = 0.003349, k = 0.169924
         1        11        10     1      118.349442      494.292618    ;  uncertainty theta = 0.003704, k = 0.177029
         1        11        30     1      120.622864      280.474360    ;  uncertainty theta = 0.001160, k = 0.078831
         2        10         9     1      120.267746      455.075183    ;  uncertainty theta = 0.001605, k = 0.060752
         2        10        11     1      119.894043      445.521751    ;  uncertainty theta = 0.002068, k = 0.137756
         3         1         7     1      115.715500      515.038200    ;  uncertainty theta = 0.010157, k = 0.040659
         3         1        11     1      121.149734      396.183385    ;  uncertainty theta = 0.006157, k = 0.146865
         3         4         5     1      124.415695      507.311277    ;  uncertainty theta = 0.006968, k = 0.243665
         3         4        27     1      118.382462      269.025818    ;  uncertainty theta = 0.005912, k = 0.078158
         3         8         9     1      121.916199      538.717963    ;  uncertainty theta = 0.002660, k = 0.063837
         3         8        28     1      119.100685      268.278506    ;  uncertainty theta = 0.002849, k = 0.044308
         4         3         8     1      121.795494      450.763945    ;  uncertainty theta = 0.005691, k = 0.205788
         4         5         6     1      121.775795      490.123270    ;  uncertainty theta = 0.008886, k = 0.295766
         4         5        12     1      118.712379      347.321350    ;  uncertainty theta = 0.004239, k = 0.477861
         5         4        27     1      117.846153      257.339797    ;  uncertainty theta = 0.005161, k = 0.149514
         5         6         7     1      112.073097      378.893677    ;  uncertainty theta = 0.005366, k = 0.160880
         5         6        69     1      126.315102      510.727025    ;  uncertainty theta = 0.004416, k = 0.204870
         5        12        13     1      113.599747      443.995940    ;  uncertainty theta = 0.006177, k = 0.265155
         5        12        15     1      123.551613      495.167456    ;  uncertainty theta = 0.003665, k = 0.177807
         6         5        12     1      119.787704      431.838904    ;  uncertainty theta = 0.004167, k = 0.337653
         6         7        70     1      115.118813      359.603615    ;  uncertainty theta = 0.004281, k = 0.170257
         7         1        11     1      121.650269      526.441477    ;  uncertainty theta = 0.002920, k = 0.202713
         7         6        69     1      124.493210      847.490792    ;  uncertainty theta = 0.003335, k = 0.114948
         8         9        10     1      118.314796      511.544659    ;  uncertainty theta = 0.001611, k = 0.078763
         8         9        29     1      120.668335      287.087992    ;  uncertainty theta = 0.001604, k = 0.054389
         9         8        28     1      119.911911      282.772763    ;  uncertainty theta = 0.001621, k = 0.055965
         9        10        11     1      122.619019      387.122468    ;  uncertainty theta = 0.001760, k = 0.112712
        10         9        29     1      120.874924      286.420899    ;  uncertainty theta = 0.000391, k = 0.039424
        10        11        30     1      121.644287      286.716810    ;  uncertainty theta = 0.001568, k = 0.074395
        12        13        14     1      114.481773      471.704694    ;  uncertainty theta = 0.010156, k = 0.121997
        12        13        31     1      116.013504      361.252993    ;  uncertainty theta = 0.006887, k = 0.185248
        13        12        15     1      124.624451      807.287465    ;  uncertainty theta = 0.003846, k = 0.057233
        13        14        16     1      108.947220      583.474556    ;  uncertainty theta = 0.005059, k = 0.196415
        13        14        20     1      110.498024      625.981330    ;  uncertainty theta = 0.001588, k = 0.108529
        13        14        32     1      105.192993      444.310270    ;  uncertainty theta = 0.004935, k = 0.152594
        14        13        31     1      112.785728      304.229330    ;  uncertainty theta = 0.002077, k = 0.193175
        14        16        17     1      109.668968      543.194746    ;  uncertainty theta = 0.003153, k = 0.181087
        14        16        21     1      109.145096      584.287786    ;  uncertainty theta = 0.004574, k = 0.173128
        14        16        68     1      107.732323      383.900546    ;  uncertainty theta = 0.001730, k = 0.083551
        14        20        19     1      109.788712      550.523577    ;  uncertainty theta = 0.003607, k = 0.115721
        14        20        60     1      107.495544      382.890234    ;  uncertainty theta = 0.000860, k = 0.033541
        14        20        61     1      107.495544      382.890234    ;  uncertainty theta = 0.000860, k = 0.033541
        16        14        20     1      109.377792      552.255057    ;  uncertainty theta = 0.000803, k = 0.239272
        16        14        32     1      107.458580      382.125079    ;  uncertainty theta = 0.002662, k = 0.086925
        16        17        18     1      110.158470      537.237002    ;  uncertainty theta = 0.003364, k = 0.118913
        16        17        55     1      107.462036      385.087415    ;  uncertainty theta = 0.000668, k = 0.059043
        16        17        56     1      107.462036      385.087415    ;  uncertainty theta = 0.000668, k = 0.059043
        16        21        22     1      116.259842      438.599854    ;  uncertainty theta = 0.006695, k = 0.183209
        16        21        33     1      112.698265      315.764027    ;  uncertainty theta = 0.001508, k = 0.296876
        17        16        21     1      110.222816      630.153200    ;  uncertainty theta = 0.002135, k = 0.087453
        17        16        68     1      108.603882      408.571724    ;  uncertainty theta = 0.001775, k = 0.034676
        17        18        19     1      109.900391      583.567575    ;  uncertainty theta = 0.002330, k = 0.083135
        17        18        50     1      108.569168      489.144113    ;  uncertainty theta = 0.003757, k = 0.073146
        17        18        57     1      107.332260      401.082169    ;  uncertainty theta = 0.002516, k = 0.077903
        18        17        55     1      108.676857      396.198101    ;  uncertainty theta = 0.000795, k = 0.026396
        18        17        56     1      108.676857      396.198101    ;  uncertainty theta = 0.000795, k = 0.026396
        18        19        20     1      109.789757      580.826741    ;  uncertainty theta = 0.001891, k = 0.142184
        18        19        58     1      108.292625      386.614311    ;  uncertainty theta = 0.000735, k = 0.019139
        18        19        59     1      108.292625      386.614311    ;  uncertainty theta = 0.000735, k = 0.019139
        18        50        51     1      123.648819      547.647652    ;  uncertainty theta = 0.003749, k = 0.250532
        18        50        52     1      114.135170      399.306701    ;  uncertainty theta = 0.002339, k = 0.216014
        19        18        50     1      108.943726      496.415422    ;  uncertainty theta = 0.001979, k = 0.055108
        19        18        57     1      107.694107      403.879791    ;  uncertainty theta = 0.001685, k = 0.082263
        19        20        60     1      108.762428      400.566224    ;  uncertainty theta = 0.001510, k = 0.036687
        19        20        61     1      108.762428      400.566224    ;  uncertainty theta = 0.001510, k = 0.036687
        20        14        32     1      108.904579      411.004134    ;  uncertainty theta = 0.001658, k = 0.070802
        20        19        58     1      108.482193      402.788750    ;  uncertainty theta = 0.000884, k = 0.036541
        20        19        59     1      108.482193      402.788750    ;  uncertainty theta = 0.000884, k = 0.036541
        21        16        68     1      105.245773      446.491842    ;  uncertainty theta = 0.004278, k = 0.178016
        21        22        23     1      113.070839      435.784547    ;  uncertainty theta = 0.006920, k = 0.140238
        21        22        24     1      124.950012      804.911939    ;  uncertainty theta = 0.003994, k = 0.055585
        22        21        33     1      116.250000      347.593576    ;  uncertainty theta = 0.004441, k = 0.081627
        22        23        25     1      122.197128      370.860213    ;  uncertainty theta = 0.005964, k = 0.255742
        22        23        26     1      118.123451      287.405674    ;  uncertainty theta = 0.005808, k = 0.204925
        23        22        24     1      120.002197      453.227350    ;  uncertainty theta = 0.007890, k = 0.121396
        23        25        34     1      111.845421      637.059456    ;  uncertainty theta = 0.004719, k = 0.108197
        23        26        35     1       89.170425     1132.634133    ;  uncertainty theta = 0.004755, k = 0.314956
        25        23        26     1      116.136452      646.965173    ;  uncertainty theta = 0.002239, k = 0.246117
        25        34        35     1      115.716957      690.992937    ;  uncertainty theta = 0.003156, k = 0.158093
        25        34        39     1      124.040390      433.932787    ;  uncertainty theta = 0.004363, k = 0.201750
        26        35        34     1      109.672325      507.238336    ;  uncertainty theta = 0.002750, k = 0.124654
        26        35        36     1      124.458923      318.004972    ;  uncertainty theta = 0.003631, k = 0.249957
        34        35        36     1      122.449425      322.713122    ;  uncertainty theta = 0.004108, k = 0.373686
        34        39        38     1      106.939438      596.797522    ;  uncertainty theta = 0.003584, k = 0.044131
        34        39        45     1      108.548073      392.911220    ;  uncertainty theta = 0.001454, k = 0.086868
        34        39        46     1      108.548073      392.911220    ;  uncertainty theta = 0.001454, k = 0.086868
        35        34        39     1      120.498146      325.489963    ;  uncertainty theta = 0.004995, k = 0.174544
        35        36        37     1      109.701111      686.046080    ;  uncertainty theta = 0.001850, k = 0.201796
        35        36        41     1      108.925659      409.463193    ;  uncertainty theta = 0.001395, k = 0.154098
        35        36        42     1      108.925659      409.463193    ;  uncertainty theta = 0.001395, k = 0.154098
        36        37        38     1      108.084244      491.834927    ;  uncertainty theta = 0.003315, k = 0.091086
        36        37        40     1      107.580322      510.743273    ;  uncertainty theta = 0.002764, k = 0.057722
        37        36        41     1      109.358154      448.409487    ;  uncertainty theta = 0.001850, k = 0.074310
        37        36        42     1      109.358154      448.409487    ;  uncertainty theta = 0.001850, k = 0.074310
        37        38        39     1      112.487526      700.788206    ;  uncertainty theta = 0.002677, k = 0.118016
        37        38        43     1      108.920166      453.721493    ;  uncertainty theta = 0.001526, k = 0.064884
        37        38        44     1      108.920166      453.721493    ;  uncertainty theta = 0.001526, k = 0.064884
        37        40        47     1      110.438461      450.024231    ;  uncertainty theta = 0.001821, k = 0.029766
        37        40        48     1      110.438461      450.024231    ;  uncertainty theta = 0.001821, k = 0.029766
        37        40        49     1      110.438461      450.024231    ;  uncertainty theta = 0.001821, k = 0.029766
        38        37        40     1      108.245483      523.945384    ;  uncertainty theta = 0.002945, k = 0.105030
        38        39        45     1      108.704140      394.566535    ;  uncertainty theta = 0.001154, k = 0.056791
        38        39        46     1      108.704140      394.566535    ;  uncertainty theta = 0.001154, k = 0.056791
        39        38        43     1      108.660522      413.983038    ;  uncertainty theta = 0.001451, k = 0.079858
        39        38        44     1      108.660522      413.983038    ;  uncertainty theta = 0.001451, k = 0.079858
        41        36        42     1      104.710770      316.430897    ;  uncertainty theta = 0.002647, k = 0.058044
        43        38        44     1      105.686386      320.062785    ;  uncertainty theta = 0.001993, k = 0.069558
        45        39        46     1      105.018166      307.701164    ;  uncertainty theta = 0.001306, k = 0.028790
        47        40        48     1      106.707680      321.292396    ;  uncertainty theta = 0.002211, k = 0.028957
        47        40        49     1      106.707680      321.292396    ;  uncertainty theta = 0.002211, k = 0.028957
        48        40        49     1      106.707680      321.292396    ;  uncertainty theta = 0.002211, k = 0.028957
        50        18        57     1      106.313622      362.200292    ;  uncertainty theta = 0.002423, k = 0.146630
        50        52        53     1      116.622971      385.561065    ;  uncertainty theta = 0.001770, k = 0.124804
        50        52        54     1      116.622971      385.561065    ;  uncertainty theta = 0.001770, k = 0.124804
        51        50        52     1      123.396584      724.695474    ;  uncertainty theta = 0.001503, k = 0.174408
        52        53        62     1      109.352982      479.364486    ;  uncertainty theta = 0.001224, k = 0.042687
        52        53        63     1      109.352982      479.364486    ;  uncertainty theta = 0.001224, k = 0.042687
        52        53        64     1      109.352982      479.364486    ;  uncertainty theta = 0.001224, k = 0.042687
        52        54        65     1      109.352982      479.364486    ;  uncertainty theta = 0.001224, k = 0.042687
        52        54        66     1      109.352982      479.364486    ;  uncertainty theta = 0.001224, k = 0.042687
        52        54        67     1      109.352982      479.364486    ;  uncertainty theta = 0.001224, k = 0.042687
        53        52        54     1      118.428368      428.731644    ;  uncertainty theta = 0.003391, k = 0.223109
        55        17        56     1      105.326035      326.596294    ;  uncertainty theta = 0.002223, k = 0.051835
        58        19        59     1      104.655197      318.642921    ;  uncertainty theta = 0.002537, k = 0.034949
        60        20        61     1      105.087135      316.700154    ;  uncertainty theta = 0.002326, k = 0.045638
        62        53        63     1      106.824196      329.099123    ;  uncertainty theta = 0.001131, k = 0.027019
        62        53        64     1      106.824196      329.099123    ;  uncertainty theta = 0.001131, k = 0.027019
        63        53        64     1      106.824196      329.099123    ;  uncertainty theta = 0.001131, k = 0.027019
        65        54        66     1      106.824196      329.099123    ;  uncertainty theta = 0.001131, k = 0.027019
        65        54        67     1      106.824196      329.099123    ;  uncertainty theta = 0.001131, k = 0.027019
        66        54        67     1      106.824196      329.099123    ;  uncertainty theta = 0.001131, k = 0.027019

[ dihedrals ] ; propers for gromacs 4.5 or higher, use funct 9
;       ai        aj        ak        al funct           phase               k        pn
         1         3         4         5     9        0.000000        0.138253         1    ;  uncertainty k = 0.963068
         1         3         4         5     9      180.000000        5.317857         2    ;  uncertainty k = 0.490420
         1         3         4         5     9        0.000000        0.882742         3    ;  uncertainty k = 0.421467
         1         3         4         5     9      180.000000        0.391049         4    ;  uncertainty k = 0.292593
         1         3         4        27     9        0.000000        0.267382         1    ;  uncertainty k = 1.399185
         1         3         4        27     9      180.000000        7.124254         2    ;  uncertainty k = 0.429125
         1         3         4        27     9        0.000000        0.992573         3    ;  uncertainty k = 0.344624
         1         3         4        27     9      180.000000        0.345300         4    ;  uncertainty k = 0.200442
         1         3         8         9     9        0.000000        0.184851         1    ;  uncertainty k = 0.390518
         1         3         8         9     9      180.000000       10.973127         2    ;  uncertainty k = 0.452207
         1         3         8         9     9        0.000000       -0.381167         3    ;  uncertainty k = 0.337802
         1         3         8         9     9      180.000000        1.057813         4    ;  uncertainty k = 0.121676
         1         3         8        28     9        0.000000        0.021050         1    ;  uncertainty k = 0.493566
         1         3         8        28     9      180.000000        6.856956         2    ;  uncertainty k = 0.783909
         1         3         8        28     9        0.000000        1.258013         3    ;  uncertainty k = 0.418420
         1         3         8        28     9      180.000000        1.136073         4    ;  uncertainty k = 0.071869
         1         7         6         5     9        0.000000        3.458997         1    ;  uncertainty k = 2.077788
         1         7         6         5     9      180.000000        4.076294         2    ;  uncertainty k = 0.492079
         1         7         6         5     9        0.000000        1.197678         3    ;  uncertainty k = 0.340048
         1         7         6         5     9      180.000000        0.340484         4    ;  uncertainty k = 0.386557
         1         7         6        69     9        0.000000        3.612255         1    ;  uncertainty k = 1.829995
         1         7         6        69     9      180.000000       15.020920         2    ;  uncertainty k = 0.411369
         1         7         6        69     9        0.000000        1.147533         3    ;  uncertainty k = 0.775380
         1         7         6        69     9      180.000000       -0.526488         4    ;  uncertainty k = 0.251333
         1        11        10         2     9        0.000000       -0.402652         1    ;  uncertainty k = 0.088734
         1        11        10         2     9      180.000000       10.325406         2    ;  uncertainty k = 0.615891
         1        11        10         2     9        0.000000        1.570585         3    ;  uncertainty k = 0.298778
         1        11        10         2     9      180.000000        1.493664         4    ;  uncertainty k = 0.269891
         1        11        10         9     9        0.000000       -0.122841         1    ;  uncertainty k = 0.319132
         1        11        10         9     9      180.000000       10.447530         2    ;  uncertainty k = 0.242810
         1        11        10         9     9        0.000000        0.313169         3    ;  uncertainty k = 0.487211
         1        11        10         9     9      180.000000        1.255822         4    ;  uncertainty k = 0.364474
         2        10         9         8     9        0.000000        0.146909         1    ;  uncertainty k = 0.037772
         2        10         9         8     9      180.000000        8.136944         2    ;  uncertainty k = 0.554905
         2        10         9         8     9        0.000000        1.417742         3    ;  uncertainty k = 0.412773
         2        10         9         8     9      180.000000        1.540384         4    ;  uncertainty k = 0.153556
         2        10         9        29     9        0.000000       -0.016187         1    ;  uncertainty k = 0.271167
         2        10         9        29     9      180.000000        6.936981         2    ;  uncertainty k = 0.234439
         2        10         9        29     9        0.000000        0.604087         3    ;  uncertainty k = 0.360435
         2        10         9        29     9      180.000000        0.874203         4    ;  uncertainty k = 0.189862
         2        10        11        30     9        0.000000       -0.193478         1    ;  uncertainty k = 0.365103
         2        10        11        30     9      180.000000        7.835300         2    ;  uncertainty k = 0.436926
         2        10        11        30     9        0.000000        0.765744         3    ;  uncertainty k = 0.330293
         2        10        11        30     9      180.000000        1.009603         4    ;  uncertainty k = 0.237410
         3         1         7         6     9        0.000000        0.690305         1    ;  uncertainty k = 0.847943
         3         1         7         6     9      180.000000        4.252012         2    ;  uncertainty k = 0.415168
         3         1         7         6     9        0.000000        0.081670         3    ;  uncertainty k = 0.177097
         3         1         7         6     9      180.000000        0.175910         4    ;  uncertainty k = 0.167365
         3         1         7        70     9        0.000000        2.804076         1    ;  uncertainty k = 1.417972
         3         1         7        70     9      180.000000        5.690631         2    ;  uncertainty k = 0.304796
         3         1         7        70     9        0.000000        1.288841         3    ;  uncertainty k = 0.232830
         3         1         7        70     9      180.000000       -0.000627         4    ;  uncertainty k = 0.193173
         3         1        11        10     9        0.000000       -0.101365         1    ;  uncertainty k = 0.410271
         3         1        11        10     9      180.000000        9.639525         2    ;  uncertainty k = 0.505792
         3         1        11        10     9        0.000000        0.188742         3    ;  uncertainty k = 0.429840
         3         1        11        10     9      180.000000        1.094419         4    ;  uncertainty k = 0.219046
         3         1        11        30     9        0.000000        0.163540         1    ;  uncertainty k = 0.253014
         3         1        11        30     9      180.000000        6.793712         2    ;  uncertainty k = 0.812355
         3         1        11        30     9        0.000000        1.501389         3    ;  uncertainty k = 0.137108
         3         1        11        30     9      180.000000        1.262762         4    ;  uncertainty k = 0.181921
         3         4         5         6     9        0.000000       -0.117422         1    ;  uncertainty k = 0.630899
         3         4         5         6     9      180.000000       16.561015         2    ;  uncertainty k = 0.609357
         3         4         5         6     9        0.000000        1.558998         3    ;  uncertainty k = 0.424955
         3         4         5         6     9      180.000000        0.960321         4    ;  uncertainty k = 0.461789
         3         4         5        12     9        0.000000        0.252443         1    ;  uncertainty k = 0.555965
         3         4         5        12     9      180.000000       17.185513         2    ;  uncertainty k = 0.280999
         3         4         5        12     9        0.000000        2.206848         3    ;  uncertainty k = 0.495560
         3         4         5        12     9      180.000000        0.869483         4    ;  uncertainty k = 0.346461
         3         8         9        10     9        0.000000        0.043825         1    ;  uncertainty k = 0.202712
         3         8         9        10     9      180.000000       15.779967         2    ;  uncertainty k = 0.305758
         3         8         9        10     9        0.000000       -0.358414         3    ;  uncertainty k = 0.765760
         3         8         9        10     9      180.000000        0.848313         4    ;  uncertainty k = 0.454808
         3         8         9        29     9        0.000000        0.145018         1    ;  uncertainty k = 0.127540
         3         8         9        29     9      180.000000        9.566881         2    ;  uncertainty k = 0.399536
         3         8         9        29     9        0.000000        1.615932         3    ;  uncertainty k = 0.259122
         3         8         9        29     9      180.000000        1.835797         4    ;  uncertainty k = 0.239406
         4         3         1         7     9        0.000000        0.035796         1    ;  uncertainty k = 0.249227
         4         3         1         7     9      180.000000        9.373729         2    ;  uncertainty k = 0.670194
         4         3         1         7     9        0.000000        0.796231         3    ;  uncertainty k = 0.178052
         4         3         1         7     9      180.000000        1.170379         4    ;  uncertainty k = 0.253113
         4         3         1        11     9        0.000000        0.030928         1    ;  uncertainty k = 0.873572
         4         3         1        11     9      180.000000        7.699629         2    ;  uncertainty k = 0.773503
         4         3         1        11     9        0.000000        0.564196         3    ;  uncertainty k = 0.161433
         4         3         1        11     9      180.000000        1.332207         4    ;  uncertainty k = 0.324341
         4         3         8         9     9        0.000000       -0.024370         1    ;  uncertainty k = 0.469073
         4         3         8         9     9      180.000000       10.520132         2    ;  uncertainty k = 0.498251
         4         3         8         9     9        0.000000        0.663844         3    ;  uncertainty k = 0.140832
         4         3         8         9     9      180.000000        1.416904         4    ;  uncertainty k = 0.104656
         4         3         8        28     9        0.000000        0.099018         1    ;  uncertainty k = 0.349552
         4         3         8        28     9      180.000000        7.218907         2    ;  uncertainty k = 0.608115
         4         3         8        28     9        0.000000        1.130559         3    ;  uncertainty k = 0.352473
         4         3         8        28     9      180.000000        1.061859         4    ;  uncertainty k = 0.150216
         4         5         6         7     9        0.000000        1.037161         1    ;  uncertainty k = 1.289498
         4         5         6         7     9      180.000000        1.427799         2    ;  uncertainty k = 0.579878
         4         5         6         7     9        0.000000        0.421490         3    ;  uncertainty k = 0.458598
         4         5         6         7     9      180.000000        0.303158         4    ;  uncertainty k = 0.151644
         4         5         6        69     9        0.000000       -1.312867         1    ;  uncertainty k = 1.386242
         4         5         6        69     9      180.000000        3.045015         2    ;  uncertainty k = 0.716228
         4         5         6        69     9        0.000000        0.140036         3    ;  uncertainty k = 0.432300
         4         5         6        69     9      180.000000       -0.051832         4    ;  uncertainty k = 0.158318
         4         5        12        13     9        0.000000       -0.308156         1    ;  uncertainty k = 1.720314
         4         5        12        13     9      180.000000        3.038618         2    ;  uncertainty k = 0.518194
         4         5        12        13     9        0.000000        0.592106         3    ;  uncertainty k = 0.243175
         4         5        12        13     9      180.000000       -0.269354         4    ;  uncertainty k = 0.193200
         4         5        12        15     9        0.000000        1.944194         1    ;  uncertainty k = 2.106752
         4         5        12        15     9      180.000000        3.275805         2    ;  uncertainty k = 0.301597
         4         5        12        15     9        0.000000        0.364466         3    ;  uncertainty k = 0.297132
         4         5        12        15     9      180.000000        0.438611         4    ;  uncertainty k = 0.120416
         5         4         3         8     9        0.000000        0.026728         1    ;  uncertainty k = 0.632551
         5         4         3         8     9      180.000000        4.999626         2    ;  uncertainty k = 0.762988
         5         4         3         8     9        0.000000        1.085339         3    ;  uncertainty k = 0.406349
         5         4         3         8     9      180.000000        0.440517         4    ;  uncertainty k = 0.290838
         5         6         7        70     9        0.000000        2.073316         1    ;  uncertainty k = 2.710278
         5         6         7        70     9      180.000000        4.915198         2    ;  uncertainty k = 1.095221
         5         6         7        70     9        0.000000        1.722338         3    ;  uncertainty k = 0.733661
         5         6         7        70     9      180.000000       -0.030763         4    ;  uncertainty k = 0.095465
         5        12        13        14     9        0.000000        2.257354         1    ;  uncertainty k = 1.152816
         5        12        13        14     9      180.000000       13.993868         2    ;  uncertainty k = 0.176536
         5        12        13        14     9        0.000000        1.891339         3    ;  uncertainty k = 0.588901
         5        12        13        14     9      180.000000       -1.428294         4    ;  uncertainty k = 0.376699
         5        12        13        31     9        0.000000        0.659647         1    ;  uncertainty k = 0.791737
         5        12        13        31     9      180.000000        7.234600         2    ;  uncertainty k = 0.879765
         5        12        13        31     9        0.000000        2.178184         3    ;  uncertainty k = 0.280346
         5        12        13        31     9      180.000000        0.191208         4    ;  uncertainty k = 0.371354
         6         5         4        27     9        0.000000       -0.018507         1    ;  uncertainty k = 0.497894
         6         5         4        27     9      180.000000       14.158696         2    ;  uncertainty k = 0.501808
         6         5         4        27     9        0.000000        1.829470         3    ;  uncertainty k = 0.390287
         6         5         4        27     9      180.000000        0.984483         4    ;  uncertainty k = 0.204268
         6         5        12        13     9        0.000000        1.258322         1    ;  uncertainty k = 0.989794
         6         5        12        13     9      180.000000        3.152095         2    ;  uncertainty k = 0.445594
         6         5        12        13     9        0.000000        0.487671         3    ;  uncertainty k = 0.334610
         6         5        12        13     9      180.000000       -0.052911         4    ;  uncertainty k = 0.129672
         6         5        12        15     9        0.000000       -3.877198         1    ;  uncertainty k = 1.302905
         6         5        12        15     9      180.000000        4.498283         2    ;  uncertainty k = 0.368216
         6         5        12        15     9        0.000000        1.294139         3    ;  uncertainty k = 0.400288
         6         5        12        15     9      180.000000        0.259691         4    ;  uncertainty k = 0.110502
         6         7         1        11     9        0.000000        0.141483         1    ;  uncertainty k = 1.332394
         6         7         1        11     9      180.000000        4.383302         2    ;  uncertainty k = 0.836919
         6         7         1        11     9        0.000000        0.558815         3    ;  uncertainty k = 0.344974
         6         7         1        11     9      180.000000        0.218744         4    ;  uncertainty k = 0.178561
         7         1         3         8     9        0.000000        0.138182         1    ;  uncertainty k = 0.379831
         7         1         3         8     9      180.000000        8.718753         2    ;  uncertainty k = 0.496902
         7         1         3         8     9        0.000000        0.818052         3    ;  uncertainty k = 0.253546
         7         1         3         8     9      180.000000        1.257270         4    ;  uncertainty k = 0.288064
         7         1        11        10     9        0.000000        0.140571         1    ;  uncertainty k = 0.426086
         7         1        11        10     9      180.000000       12.372038         2    ;  uncertainty k = 0.389155
         7         1        11        10     9        0.000000        1.112632         3    ;  uncertainty k = 0.215469
         7         1        11        10     9      180.000000        1.310239         4    ;  uncertainty k = 0.158017
         7         1        11        30     9        0.000000       -0.185517         1    ;  uncertainty k = 0.450834
         7         1        11        30     9      180.000000        8.997475         2    ;  uncertainty k = 0.442413
         7         1        11        30     9        0.000000        1.306615         3    ;  uncertainty k = 0.239058
         7         1        11        30     9      180.000000        1.117226         4    ;  uncertainty k = 0.108435
         7         6         5        12     9        0.000000        1.331795         1    ;  uncertainty k = 0.881310
         7         6         5        12     9      180.000000        3.014529         2    ;  uncertainty k = 0.447739
         7         6         5        12     9        0.000000        0.359248         3    ;  uncertainty k = 0.367460
         7         6         5        12     9      180.000000        0.293445         4    ;  uncertainty k = 0.264066
         8         3         1        11     9        0.000000       -0.044002         1    ;  uncertainty k = 0.209790
         8         3         1        11     9      180.000000        7.414567         2    ;  uncertainty k = 0.948928
         8         3         1        11     9        0.000000        0.376322         3    ;  uncertainty k = 0.413281
         8         3         1        11     9      180.000000        1.408905         4    ;  uncertainty k = 0.440526
         8         3         4        27     9        0.000000       -0.314517         1    ;  uncertainty k = 1.259352
         8         3         4        27     9      180.000000        6.043054         2    ;  uncertainty k = 0.531854
         8         3         4        27     9        0.000000        0.720131         3    ;  uncertainty k = 0.192955
         8         3         4        27     9      180.000000        0.345004         4    ;  uncertainty k = 0.127850
         8         9        10        11     9        0.000000       -0.012060         1    ;  uncertainty k = 0.273272
         8         9        10        11     9      180.000000        8.952561         2    ;  uncertainty k = 0.516481
         8         9        10        11     9        0.000000       -0.069304         3    ;  uncertainty k = 0.437995
         8         9        10        11     9      180.000000        1.187025         4    ;  uncertainty k = 0.214904
         9        10        11        30     9        0.000000        0.271790         1    ;  uncertainty k = 0.140054
         9        10        11        30     9      180.000000        7.159678         2    ;  uncertainty k = 0.607010
         9        10        11        30     9        0.000000        1.600963         3    ;  uncertainty k = 0.283766
         9        10        11        30     9      180.000000        1.575867         4    ;  uncertainty k = 0.090461
        10         9         8        28     9        0.000000       -0.009247         1    ;  uncertainty k = 0.139145
        10         9         8        28     9      180.000000        9.149535         2    ;  uncertainty k = 0.483870
        10         9         8        28     9        0.000000        1.511114         3    ;  uncertainty k = 0.333309
        10         9         8        28     9      180.000000        1.944106         4    ;  uncertainty k = 0.321938
        11         1         7        70     9        0.000000        1.945582         1    ;  uncertainty k = 0.348128
        11         1         7        70     9      180.000000        4.839983         2    ;  uncertainty k = 0.770008
        11         1         7        70     9        0.000000        1.094511         3    ;  uncertainty k = 0.326191
        11         1         7        70     9      180.000000       -0.073170         4    ;  uncertainty k = 0.258962
        11        10         9        29     9        0.000000       -0.087548         1    ;  uncertainty k = 0.087093
        11        10         9        29     9      180.000000        5.926928         2    ;  uncertainty k = 0.647345
        11        10         9        29     9        0.000000        1.281952         3    ;  uncertainty k = 0.271061
        11        10         9        29     9      180.000000        1.412906         4    ;  uncertainty k = 0.115984
        12         5         4        27     9        0.000000        0.050145         1    ;  uncertainty k = 0.192849
        12         5         4        27     9      180.000000       15.053114         2    ;  uncertainty k = 0.703698
        12         5         4        27     9        0.000000        1.849503         3    ;  uncertainty k = 0.331737
        12         5         4        27     9      180.000000        0.849091         4    ;  uncertainty k = 0.556612
        12         5         6        69     9        0.000000       -1.831662         1    ;  uncertainty k = 1.744487
        12         5         6        69     9      180.000000        7.697463         2    ;  uncertainty k = 0.611952
        12         5         6        69     9        0.000000       -0.155458         3    ;  uncertainty k = 0.540092
        12         5         6        69     9      180.000000       -0.084273         4    ;  uncertainty k = 0.154821
        12        13        14        16     9        0.000000        0.809265         1    ;  uncertainty k = 0.441487
        12        13        14        16     9      180.000000        0.354789         2    ;  uncertainty k = 0.310648
        12        13        14        16     9        0.000000       -0.264666         3    ;  uncertainty k = 0.106764
        12        13        14        16     9      180.000000        0.510382         4    ;  uncertainty k = 0.197288
        12        13        14        20     9        0.000000        0.454690         1    ;  uncertainty k = 0.457498
        12        13        14        20     9      180.000000        0.458086         2    ;  uncertainty k = 0.237265
        12        13        14        20     9        0.000000        0.063030         3    ;  uncertainty k = 0.060312
        12        13        14        20     9      180.000000        0.379976         4    ;  uncertainty k = 0.136638
        12        13        14        32     9        0.000000        1.153153         1    ;  uncertainty k = 0.192291
        12        13        14        32     9      180.000000       -0.221503         2    ;  uncertainty k = 0.242689
        12        13        14        32     9        0.000000        0.149563         3    ;  uncertainty k = 0.121579
        12        13        14        32     9      180.000000        0.247056         4    ;  uncertainty k = 0.039418
        13        14        16        17     9        0.000000       -2.948628         1    ;  uncertainty k = 1.006394
        13        14        16        17     9      180.000000       -0.122589         2    ;  uncertainty k = 0.324194
        13        14        16        17     9        0.000000        0.608376         3    ;  uncertainty k = 0.181339
        13        14        16        17     9      180.000000       -0.013311         4    ;  uncertainty k = 0.160565
        13        14        16        21     9        0.000000        0.498516         1    ;  uncertainty k = 0.865677
        13        14        16        21     9      180.000000       -1.265907         2    ;  uncertainty k = 0.697353
        13        14        16        21     9        0.000000        0.399524         3    ;  uncertainty k = 0.423527
        13        14        16        21     9      180.000000       -0.024748         4    ;  uncertainty k = 0.378245
        13        14        16        68     9        0.000000        0.053788         1    ;  uncertainty k = 1.282916
        13        14        16        68     9      180.000000       -1.323508         2    ;  uncertainty k = 0.455090
        13        14        16        68     9        0.000000        0.502335         3    ;  uncertainty k = 0.263200
        13        14        16        68     9      180.000000       -0.262144         4    ;  uncertainty k = 0.116679
        13        14        20        19     9        0.000000       -4.431998         1    ;  uncertainty k = 0.767933
        13        14        20        19     9      180.000000        0.499487         2    ;  uncertainty k = 0.301291
        13        14        20        19     9        0.000000        0.909633         3    ;  uncertainty k = 0.143875
        13        14        20        19     9      180.000000       -0.136864         4    ;  uncertainty k = 0.095337
        13        14        20        60     9        0.000000       -0.338827         1    ;  uncertainty k = 0.746137
        13        14        20        60     9      180.000000       -1.304801         2    ;  uncertainty k = 0.309228
        13        14        20        60     9        0.000000        0.980155         3    ;  uncertainty k = 0.095282
        13        14        20        60     9      180.000000       -0.308736         4    ;  uncertainty k = 0.084515
        13        14        20        61     9        0.000000       -0.338827         1    ;  uncertainty k = 0.746137
        13        14        20        61     9      180.000000       -1.304801         2    ;  uncertainty k = 0.309228
        13        14        20        61     9        0.000000        0.980155         3    ;  uncertainty k = 0.095282
        13        14        20        61     9      180.000000       -0.308736         4    ;  uncertainty k = 0.084515
        14        13        12        15     9        0.000000        4.490424         1    ;  uncertainty k = 1.707279
        14        13        12        15     9      180.000000       15.755034         2    ;  uncertainty k = 0.228839
        14        13        12        15     9        0.000000       -0.239832         3    ;  uncertainty k = 0.243587
        14        13        12        15     9      180.000000       -0.545880         4    ;  uncertainty k = 0.149615
        14        16        17        18     9        0.000000       -1.456094         1    ;  uncertainty k = 2.698397
        14        16        17        18     9      180.000000       -1.367148         2    ;  uncertainty k = 1.274527
        14        16        17        18     9        0.000000        0.521650         3    ;  uncertainty k = 0.498024
        14        16        17        18     9      180.000000       -1.215981         4    ;  uncertainty k = 0.213875
        14        16        17        55     9        0.000000       -0.883054         1    ;  uncertainty k = 0.510035
        14        16        17        55     9      180.000000       -0.612178         2    ;  uncertainty k = 0.165892
        14        16        17        55     9        0.000000        0.126100         3    ;  uncertainty k = 0.066204
        14        16        17        55     9      180.000000       -0.135527         4    ;  uncertainty k = 0.114275
        14        16        17        56     9        0.000000       -0.883054         1    ;  uncertainty k = 0.510035
        14        16        17        56     9      180.000000       -0.612178         2    ;  uncertainty k = 0.165892
        14        16        17        56     9        0.000000        0.126100         3    ;  uncertainty k = 0.066204
        14        16        17        56     9      180.000000       -0.135527         4    ;  uncertainty k = 0.114275
        14        16        21        22     9        0.000000        0.806166         1    ;  uncertainty k = 0.584506
        14        16        21        22     9      180.000000        0.211265         2    ;  uncertainty k = 0.186901
        14        16        21        22     9        0.000000       -0.087720         3    ;  uncertainty k = 0.110584
        14        16        21        22     9      180.000000        0.457297         4    ;  uncertainty k = 0.212195
        14        16        21        33     9        0.000000        2.721714         1    ;  uncertainty k = 0.581123
        14        16        21        33     9      180.000000       -1.552768         2    ;  uncertainty k = 0.406749
        14        16        21        33     9        0.000000        0.519713         3    ;  uncertainty k = 0.252784
        14        16        21        33     9      180.000000        0.166664         4    ;  uncertainty k = 0.147162
        14        20        19        18     9        0.000000       -5.593175         1    ;  uncertainty k = 0.714850
        14        20        19        18     9      180.000000       -1.072192         2    ;  uncertainty k = 0.658130
        14        20        19        18     9        0.000000        1.426355         3    ;  uncertainty k = 0.144725
        14        20        19        18     9      180.000000       -1.201491         4    ;  uncertainty k = 0.219565
        14        20        19        58     9        0.000000       -1.157001         1    ;  uncertainty k = 0.423408
        14        20        19        58     9      180.000000       -0.678307         2    ;  uncertainty k = 0.273240
        14        20        19        58     9        0.000000        0.402900         3    ;  uncertainty k = 0.184259
        14        20        19        58     9      180.000000       -0.085830         4    ;  uncertainty k = 0.031937
        14        20        19        59     9        0.000000       -1.157001         1    ;  uncertainty k = 0.423408
        14        20        19        59     9      180.000000       -0.678307         2    ;  uncertainty k = 0.273240
        14        20        19        59     9        0.000000        0.402900         3    ;  uncertainty k = 0.184259
        14        20        19        59     9      180.000000       -0.085830         4    ;  uncertainty k = 0.031937
        15        12        13        31     9        0.000000        1.979074         1    ;  uncertainty k = 0.310961
        15        12        13        31     9      180.000000       15.511124         2    ;  uncertainty k = 0.228449
        15        12        13        31     9        0.000000        1.833962         3    ;  uncertainty k = 0.165634
        15        12        13        31     9      180.000000       -0.276653         4    ;  uncertainty k = 0.139836
        16        14        13        31     9        0.000000        2.596269         1    ;  uncertainty k = 0.664130
        16        14        13        31     9      180.000000       -1.464385         2    ;  uncertainty k = 0.092058
        16        14        13        31     9        0.000000        0.485341         3    ;  uncertainty k = 0.223115
        16        14        13        31     9      180.000000        0.149818         4    ;  uncertainty k = 0.141236
        16        14        20        19     9        0.000000       -4.799166         1    ;  uncertainty k = 1.380522
        16        14        20        19     9      180.000000        0.190384         2    ;  uncertainty k = 0.746255
        16        14        20        19     9        0.000000        0.931598         3    ;  uncertainty k = 0.334613
        16        14        20        19     9      180.000000       -1.207051         4    ;  uncertainty k = 0.155975
        16        14        20        60     9        0.000000       -0.720050         1    ;  uncertainty k = 0.645871
        16        14        20        60     9      180.000000       -0.677819         2    ;  uncertainty k = 0.272256
        16        14        20        60     9        0.000000        0.102385         3    ;  uncertainty k = 0.042680
        16        14        20        60     9      180.000000       -0.121601         4    ;  uncertainty k = 0.091983
        16        14        20        61     9        0.000000       -0.720050         1    ;  uncertainty k = 0.645871
        16        14        20        61     9      180.000000       -0.677819         2    ;  uncertainty k = 0.272256
        16        14        20        61     9        0.000000        0.102385         3    ;  uncertainty k = 0.042680
        16        14        20        61     9      180.000000       -0.121601         4    ;  uncertainty k = 0.091983
        16        17        18        19     9        0.000000       -3.684684         1    ;  uncertainty k = 1.555404
        16        17        18        19     9      180.000000       -0.286572         2    ;  uncertainty k = 0.574153
        16        17        18        19     9        0.000000        0.981635         3    ;  uncertainty k = 0.134172
        16        17        18        19     9      180.000000       -1.149549         4    ;  uncertainty k = 0.220596
        16        17        18        50     9        0.000000       -1.988663         1    ;  uncertainty k = 0.821936
        16        17        18        50     9      180.000000       -0.960549         2    ;  uncertainty k = 0.272982
        16        17        18        50     9        0.000000        0.443546         3    ;  uncertainty k = 0.317502
        16        17        18        50     9      180.000000        0.183458         4    ;  uncertainty k = 0.094088
        16        17        18        57     9        0.000000       -1.929217         1    ;  uncertainty k = 0.461104
        16        17        18        57     9      180.000000       -0.447748         2    ;  uncertainty k = 0.220193
        16        17        18        57     9        0.000000        0.087566         3    ;  uncertainty k = 0.087859
        16        17        18        57     9      180.000000       -0.164482         4    ;  uncertainty k = 0.141866
        16        21        22        23     9        0.000000        3.958068         1    ;  uncertainty k = 1.380043
        16        21        22        23     9      180.000000       12.511831         2    ;  uncertainty k = 0.156026
        16        21        22        23     9        0.000000        1.263553         3    ;  uncertainty k = 0.259475
        16        21        22        23     9      180.000000       -1.435052         4    ;  uncertainty k = 0.493362
        16        21        22        24     9        0.000000        4.206341         1    ;  uncertainty k = 1.055487
        16        21        22        24     9      180.000000       13.261930         2    ;  uncertainty k = 0.104052
        16        21        22        24     9        0.000000        0.422296         3    ;  uncertainty k = 0.282045
        16        21        22        24     9      180.000000       -0.345763         4    ;  uncertainty k = 0.133307
        17        16        14        20     9        0.000000       -1.504684         1    ;  uncertainty k = 2.486553
        17        16        14        20     9      180.000000        0.518860         2    ;  uncertainty k = 0.966084
        17        16        14        20     9        0.000000        0.428097         3    ;  uncertainty k = 0.506905
        17        16        14        20     9      180.000000       -1.121235         4    ;  uncertainty k = 0.264904
        17        16        14        32     9        0.000000       -1.278716         1    ;  uncertainty k = 0.309689
        17        16        14        32     9      180.000000       -0.212447         2    ;  uncertainty k = 0.244461
        17        16        14        32     9        0.000000       -0.235545         3    ;  uncertainty k = 0.061727
        17        16        14        32     9      180.000000       -0.145454         4    ;  uncertainty k = 0.046357
        17        16        21        22     9        0.000000        0.364606         1    ;  uncertainty k = 0.383608
        17        16        21        22     9      180.000000        0.211641         2    ;  uncertainty k = 0.299414
        17        16        21        22     9        0.000000        0.181029         3    ;  uncertainty k = 0.072944
        17        16        21        22     9      180.000000        0.342393         4    ;  uncertainty k = 0.127149
        17        16        21        33     9        0.000000        0.945683         1    ;  uncertainty k = 0.464115
        17        16        21        33     9      180.000000       -0.514672         2    ;  uncertainty k = 0.347973
        17        16        21        33     9        0.000000        0.327272         3    ;  uncertainty k = 0.178732
        17        16        21        33     9      180.000000        0.059847         4    ;  uncertainty k = 0.085826
        17        18        19        20     9        0.000000       -5.487573         1    ;  uncertainty k = 0.618648
        17        18        19        20     9      180.000000        0.628450         2    ;  uncertainty k = 0.548060
        17        18        19        20     9        0.000000        1.367560         3    ;  uncertainty k = 0.173350
        17        18        19        20     9      180.000000       -1.033143         4    ;  uncertainty k = 0.273102
        17        18        19        58     9        0.000000       -1.226844         1    ;  uncertainty k = 0.266748
        17        18        19        58     9      180.000000       -0.345485         2    ;  uncertainty k = 0.101300
        17        18        19        58     9        0.000000        0.394880         3    ;  uncertainty k = 0.108227
        17        18        19        58     9      180.000000       -0.070781         4    ;  uncertainty k = 0.048007
        17        18        19        59     9        0.000000       -1.226844         1    ;  uncertainty k = 0.266748
        17        18        19        59     9      180.000000       -0.345485         2    ;  uncertainty k = 0.101300
        17        18        19        59     9        0.000000        0.394880         3    ;  uncertainty k = 0.108227
        17        18        19        59     9      180.000000       -0.070781         4    ;  uncertainty k = 0.048007
        17        18        50        51     9        0.000000       -1.170185         1    ;  uncertainty k = 0.334655
        17        18        50        51     9      180.000000        4.880266         2    ;  uncertainty k = 0.323686
        17        18        50        51     9        0.000000        1.279706         3    ;  uncertainty k = 0.118363
        17        18        50        51     9      180.000000        0.575624         4    ;  uncertainty k = 0.083005
        17        18        50        52     9        0.000000       -1.631697         1    ;  uncertainty k = 0.279350
        17        18        50        52     9      180.000000        3.392199         2    ;  uncertainty k = 0.510159
        17        18        50        52     9        0.000000        0.814553         3    ;  uncertainty k = 0.127255
        17        18        50        52     9      180.000000        0.128487         4    ;  uncertainty k = 0.053904
        18        17        16        21     9        0.000000       -2.824384         1    ;  uncertainty k = 0.488217
        18        17        16        21     9      180.000000       -0.460507         2    ;  uncertainty k = 0.536155
        18        17        16        21     9        0.000000        0.759551         3    ;  uncertainty k = 0.189386
        18        17        16        21     9      180.000000       -0.140203         4    ;  uncertainty k = 0.174781
        18        17        16        68     9        0.000000       -0.730287         1    ;  uncertainty k = 0.498293
        18        17        16        68     9      180.000000       -0.792172         2    ;  uncertainty k = 0.456680
        18        17        16        68     9        0.000000       -0.041965         3    ;  uncertainty k = 0.196130
        18        17        16        68     9      180.000000       -0.091310         4    ;  uncertainty k = 0.082273
        18        19        20        60     9        0.000000       -1.242829         1    ;  uncertainty k = 0.333977
        18        19        20        60     9      180.000000       -0.548741         2    ;  uncertainty k = 0.201763
        18        19        20        60     9        0.000000        0.486940         3    ;  uncertainty k = 0.161944
        18        19        20        60     9      180.000000       -0.063210         4    ;  uncertainty k = 0.051028
        18        19        20        61     9        0.000000       -1.242829         1    ;  uncertainty k = 0.333977
        18        19        20        61     9      180.000000       -0.548741         2    ;  uncertainty k = 0.201763
        18        19        20        61     9        0.000000        0.486940         3    ;  uncertainty k = 0.161944
        18        19        20        61     9      180.000000       -0.063210         4    ;  uncertainty k = 0.051028
        18        50        52        53     9        0.000000        9.050821         1    ;  uncertainty k = 0.304912
        18        50        52        53     9      180.000000        6.374692         2    ;  uncertainty k = 0.405917
        18        50        52        53     9        0.000000        1.178678         3    ;  uncertainty k = 0.297789
        18        50        52        53     9      180.000000        0.054538         4    ;  uncertainty k = 0.124306
        18        50        52        54     9        0.000000        9.050821         1    ;  uncertainty k = 0.304912
        18        50        52        54     9      180.000000        6.374692         2    ;  uncertainty k = 0.405917
        18        50        52        54     9        0.000000        1.178678         3    ;  uncertainty k = 0.297789
        18        50        52        54     9      180.000000        0.054538         4    ;  uncertainty k = 0.124306
        19        18        17        55     9        0.000000       -1.411123         1    ;  uncertainty k = 0.345622
        19        18        17        55     9      180.000000       -0.225290         2    ;  uncertainty k = 0.172594
        19        18        17        55     9        0.000000        0.346843         3    ;  uncertainty k = 0.114252
        19        18        17        55     9      180.000000       -0.038457         4    ;  uncertainty k = 0.044896
        19        18        17        56     9        0.000000       -1.411123         1    ;  uncertainty k = 0.345622
        19        18        17        56     9      180.000000       -0.225290         2    ;  uncertainty k = 0.172594
        19        18        17        56     9        0.000000        0.346843         3    ;  uncertainty k = 0.114252
        19        18        17        56     9      180.000000       -0.038457         4    ;  uncertainty k = 0.044896
        19        18        50        51     9        0.000000       -1.412751         1    ;  uncertainty k = 0.366362
        19        18        50        51     9      180.000000        4.939282         2    ;  uncertainty k = 0.250194
        19        18        50        51     9        0.000000        1.341107         3    ;  uncertainty k = 0.099404
        19        18        50        51     9      180.000000        0.562838         4    ;  uncertainty k = 0.064019
        19        18        50        52     9        0.000000       -1.501807         1    ;  uncertainty k = 0.463410
        19        18        50        52     9      180.000000        3.323275         2    ;  uncertainty k = 0.502078
        19        18        50        52     9        0.000000        0.807080         3    ;  uncertainty k = 0.124119
        19        18        50        52     9      180.000000        0.125518         4    ;  uncertainty k = 0.039696
        19        20        14        32     9        0.000000       -1.467351         1    ;  uncertainty k = 0.297862
        19        20        14        32     9      180.000000       -0.260937         2    ;  uncertainty k = 0.244178
        19        20        14        32     9        0.000000        0.030506         3    ;  uncertainty k = 0.107026
        19        20        14        32     9      180.000000       -0.152086         4    ;  uncertainty k = 0.105150
        20        14        13        31     9        0.000000        0.780119         1    ;  uncertainty k = 0.851828
        20        14        13        31     9      180.000000       -0.405254         2    ;  uncertainty k = 0.270232
        20        14        13        31     9        0.000000        0.270583         3    ;  uncertainty k = 0.089869
        20        14        13        31     9      180.000000        0.011482         4    ;  uncertainty k = 0.073137
        20        14        16        21     9        0.000000       -2.820073         1    ;  uncertainty k = 0.490711
        20        14        16        21     9      180.000000       -0.095912         2    ;  uncertainty k = 0.364544
        20        14        16        21     9        0.000000        0.587215         3    ;  uncertainty k = 0.175247
        20        14        16        21     9      180.000000       -0.068556         4    ;  uncertainty k = 0.196383
        20        14        16        68     9        0.000000       -1.249975         1    ;  uncertainty k = 0.255477
        20        14        16        68     9      180.000000       -0.309296         2    ;  uncertainty k = 0.362140
        20        14        16        68     9        0.000000       -0.218771         3    ;  uncertainty k = 0.084394
        20        14        16        68     9      180.000000       -0.165295         4    ;  uncertainty k = 0.069703
        20        19        18        50     9        0.000000       -3.042856         1    ;  uncertainty k = 1.255460
        20        19        18        50     9      180.000000       -0.384066         2    ;  uncertainty k = 0.506050
        20        19        18        50     9        0.000000        0.568068         3    ;  uncertainty k = 0.143563
        20        19        18        50     9      180.000000        0.123689         4    ;  uncertainty k = 0.149073
        20        19        18        57     9        0.000000       -2.461228         1    ;  uncertainty k = 0.396150
        20        19        18        57     9      180.000000        0.138744         2    ;  uncertainty k = 0.107060
        20        19        18        57     9        0.000000        0.248333         3    ;  uncertainty k = 0.111967
        20        19        18        57     9      180.000000       -0.235150         4    ;  uncertainty k = 0.140386
        21        16        14        32     9        0.000000        0.054737         1    ;  uncertainty k = 1.101159
        21        16        14        32     9      180.000000       -1.465237         2    ;  uncertainty k = 0.517976
        21        16        14        32     9        0.000000        0.499357         3    ;  uncertainty k = 0.269250
        21        16        14        32     9      180.000000       -0.255299         4    ;  uncertainty k = 0.119667
        21        16        17        55     9        0.000000       -0.427435         1    ;  uncertainty k = 0.715503
        21        16        17        55     9      180.000000       -1.219759         2    ;  uncertainty k = 0.324042
        21        16        17        55     9        0.000000        0.959594         3    ;  uncertainty k = 0.057792
        21        16        17        55     9      180.000000       -0.287421         4    ;  uncertainty k = 0.054437
        21        16        17        56     9        0.000000       -0.427435         1    ;  uncertainty k = 0.715503
        21        16        17        56     9      180.000000       -1.219759         2    ;  uncertainty k = 0.324042
        21        16        17        56     9        0.000000        0.959594         3    ;  uncertainty k = 0.057792
        21        16        17        56     9      180.000000       -0.287421         4    ;  uncertainty k = 0.054437
        21        22        23        25     9        0.000000        2.331066         1    ;  uncertainty k = 1.152102
        21        22        23        25     9      180.000000        2.596169         2    ;  uncertainty k = 0.278815
        21        22        23        25     9        0.000000        0.009927         3    ;  uncertainty k = 0.144977
        21        22        23        25     9      180.000000       -0.114334         4    ;  uncertainty k = 0.149289
        21        22        23        26     9        0.000000        3.367960         1    ;  uncertainty k = 1.051353
        21        22        23        26     9      180.000000        3.218021         2    ;  uncertainty k = 0.680396
        21        22        23        26     9        0.000000        1.143577         3    ;  uncertainty k = 0.311002
        21        22        23        26     9      180.000000       -0.348976         4    ;  uncertainty k = 0.193639
        22        21        16        68     9        0.000000        1.089648         1    ;  uncertainty k = 0.334910
        22        21        16        68     9      180.000000       -0.432136         2    ;  uncertainty k = 0.173910
        22        21        16        68     9        0.000000        0.083475         3    ;  uncertainty k = 0.110493
        22        21        16        68     9      180.000000        0.217577         4    ;  uncertainty k = 0.051810
        22        23        25        34     9        0.000000        0.338836         1    ;  uncertainty k = 0.784673
        22        23        25        34     9      180.000000       19.192857         2    ;  uncertainty k = 0.359716
        22        23        25        34     9        0.000000        1.903447         3    ;  uncertainty k = 0.386883
        22        23        25        34     9      180.000000        1.368535         4    ;  uncertainty k = 0.528772
        22        23        26        35     9        0.000000        0.370727         1    ;  uncertainty k = 1.804242
        22        23        26        35     9      180.000000        8.920830         2    ;  uncertainty k = 1.081273
        22        23        26        35     9        0.000000        0.589745         3    ;  uncertainty k = 1.110553
        22        23        26        35     9      180.000000        0.676613         4    ;  uncertainty k = 0.547063
        23        22        21        33     9        0.000000       -0.086051         1    ;  uncertainty k = 0.569285
        23        22        21        33     9      180.000000        6.824223         2    ;  uncertainty k = 1.004102
        23        22        21        33     9        0.000000        2.774672         3    ;  uncertainty k = 0.278048
        23        22        21        33     9      180.000000        0.087878         4    ;  uncertainty k = 0.345011
        23        25        34        35     9        0.000000       -0.476241         1    ;  uncertainty k = 0.425307
        23        25        34        35     9      180.000000       15.671500         2    ;  uncertainty k = 0.795841
        23        25        34        35     9        0.000000       -2.864533         3    ;  uncertainty k = 0.780902
        23        25        34        35     9      180.000000        1.605024         4    ;  uncertainty k = 0.448125
        23        25        34        39     9        0.000000        0.569206         1    ;  uncertainty k = 1.621980
        23        25        34        39     9      180.000000       12.800205         2    ;  uncertainty k = 0.282748
        23        25        34        39     9        0.000000        1.817073         3    ;  uncertainty k = 0.361654
        23        25        34        39     9      180.000000        0.682642         4    ;  uncertainty k = 0.136948
        23        26        35        34     9        0.000000       -0.523789         1    ;  uncertainty k = 1.004169
        23        26        35        34     9      180.000000       13.442345         2    ;  uncertainty k = 0.923619
        23        26        35        34     9        0.000000       -9.024257         3    ;  uncertainty k = 1.660071
        23        26        35        34     9      180.000000        1.636793         4    ;  uncertainty k = 0.487983
        23        26        35        36     9        0.000000        1.116166         1    ;  uncertainty k = 1.266411
        23        26        35        36     9      180.000000       10.158909         2    ;  uncertainty k = 0.818049
        23        26        35        36     9        0.000000        0.724355         3    ;  uncertainty k = 0.566010
        23        26        35        36     9      180.000000       -0.026620         4    ;  uncertainty k = 0.200593
        24        22        21        33     9        0.000000        2.038363         1    ;  uncertainty k = 0.746143
        24        22        21        33     9      180.000000       14.699346         2    ;  uncertainty k = 0.325315
        24        22        21        33     9        0.000000        1.840592         3    ;  uncertainty k = 0.226058
        24        22        21        33     9      180.000000       -0.518143         4    ;  uncertainty k = 0.264067
        24        22        23        25     9        0.000000       -0.975565         1    ;  uncertainty k = 1.614283
        24        22        23        25     9      180.000000        3.488550         2    ;  uncertainty k = 0.286154
        24        22        23        25     9        0.000000        0.632000         3    ;  uncertainty k = 0.220397
        24        22        23        25     9      180.000000        0.223278         4    ;  uncertainty k = 0.063243
        24        22        23        26     9        0.000000       -0.928770         1    ;  uncertainty k = 0.780300
        24        22        23        26     9      180.000000        4.634695         2    ;  uncertainty k = 0.475093
        24        22        23        26     9        0.000000        0.007574         3    ;  uncertainty k = 0.071977
        24        22        23        26     9      180.000000        0.288910         4    ;  uncertainty k = 0.240907
        25        23        26        35     9        0.000000        0.143511         1    ;  uncertainty k = 1.333641
        25        23        26        35     9      180.000000       14.564367         2    ;  uncertainty k = 1.374348
        25        23        26        35     9        0.000000       -9.893199         3    ;  uncertainty k = 1.620531
        25        23        26        35     9      180.000000        1.663619         4    ;  uncertainty k = 0.759588
        25        34        35        26     9        0.000000        0.087022         1    ;  uncertainty k = 0.519435
        25        34        35        26     9      180.000000       17.308740         2    ;  uncertainty k = 0.865665
        25        34        35        26     9        0.000000       -2.374264         3    ;  uncertainty k = 0.748324
        25        34        35        26     9      180.000000        1.160228         4    ;  uncertainty k = 0.641111
        25        34        35        36     9        0.000000        0.011055         1    ;  uncertainty k = 0.425259
        25        34        35        36     9      180.000000       14.953749         2    ;  uncertainty k = 0.328993
        25        34        35        36     9        0.000000        1.241934         3    ;  uncertainty k = 0.342959
        25        34        35        36     9      180.000000        1.144042         4    ;  uncertainty k = 0.470191
        25        34        39        38     9        0.000000       -3.954572         1    ;  uncertainty k = 1.035742
        25        34        39        38     9      180.000000        1.199577         2    ;  uncertainty k = 0.494541
        25        34        39        38     9        0.000000        0.552603         3    ;  uncertainty k = 0.196554
        25        34        39        38     9      180.000000        0.408701         4    ;  uncertainty k = 0.071879
        25        34        39        45     9        0.000000        0.678330         1    ;  uncertainty k = 0.150352
        25        34        39        45     9      180.000000        1.438459         2    ;  uncertainty k = 0.504096
        25        34        39        45     9        0.000000        0.609129         3    ;  uncertainty k = 0.196471
        25        34        39        45     9      180.000000        0.167234         4    ;  uncertainty k = 0.108981
        25        34        39        46     9        0.000000        0.678330         1    ;  uncertainty k = 0.150352
        25        34        39        46     9      180.000000        1.438459         2    ;  uncertainty k = 0.504096
        25        34        39        46     9        0.000000        0.609129         3    ;  uncertainty k = 0.196471
        25        34        39        46     9      180.000000        0.167234         4    ;  uncertainty k = 0.108981
        26        23        25        34     9        0.000000       -0.152600         1    ;  uncertainty k = 0.906407
        26        23        25        34     9      180.000000       20.432965         2    ;  uncertainty k = 0.275340
        26        23        25        34     9        0.000000       -2.337892         3    ;  uncertainty k = 1.016825
        26        23        25        34     9      180.000000        1.938626         4    ;  uncertainty k = 0.362221
        26        35        34        39     9        0.000000        0.239944         1    ;  uncertainty k = 0.547138
        26        35        34        39     9      180.000000       12.400727         2    ;  uncertainty k = 0.549556
        26        35        34        39     9        0.000000        0.936373         3    ;  uncertainty k = 0.318788
        26        35        34        39     9      180.000000        0.958147         4    ;  uncertainty k = 0.190163
        26        35        36        37     9        0.000000       -8.471687         1    ;  uncertainty k = 1.305576
        26        35        36        37     9      180.000000       -0.738803         2    ;  uncertainty k = 0.986263
        26        35        36        37     9        0.000000        0.572190         3    ;  uncertainty k = 0.535086
        26        35        36        37     9      180.000000        0.223231         4    ;  uncertainty k = 0.263405
        26        35        36        41     9        0.000000        0.153964         1    ;  uncertainty k = 0.629108
        26        35        36        41     9      180.000000        0.393717         2    ;  uncertainty k = 0.317135
        26        35        36        41     9        0.000000        0.658149         3    ;  uncertainty k = 0.161833
        26        35        36        41     9      180.000000       -0.071880         4    ;  uncertainty k = 0.067074
        26        35        36        42     9        0.000000        0.153964         1    ;  uncertainty k = 0.629108
        26        35        36        42     9      180.000000        0.393717         2    ;  uncertainty k = 0.317135
        26        35        36        42     9        0.000000        0.658149         3    ;  uncertainty k = 0.161833
        26        35        36        42     9      180.000000       -0.071880         4    ;  uncertainty k = 0.067074
        28         8         9        29     9        0.000000       -0.171630         1    ;  uncertainty k = 0.187302
        28         8         9        29     9      180.000000        8.405300         2    ;  uncertainty k = 0.424809
        28         8         9        29     9        0.000000       -0.187362         3    ;  uncertainty k = 0.211654
        28         8         9        29     9      180.000000        0.230296         4    ;  uncertainty k = 0.157170
        31        13        14        32     9        0.000000        0.424857         1    ;  uncertainty k = 0.642840
        31        13        14        32     9      180.000000       -0.412127         2    ;  uncertainty k = 0.176899
        31        13        14        32     9        0.000000        0.127993         3    ;  uncertainty k = 0.143254
        31        13        14        32     9      180.000000        0.192549         4    ;  uncertainty k = 0.059456
        32        14        16        68     9        0.000000        1.517573         1    ;  uncertainty k = 0.280340
        32        14        16        68     9      180.000000       -0.682840         2    ;  uncertainty k = 0.153382
        32        14        16        68     9        0.000000       -0.217673         3    ;  uncertainty k = 0.163694
        32        14        16        68     9      180.000000       -0.045475         4    ;  uncertainty k = 0.124283
        32        14        20        60     9        0.000000        1.378248         1    ;  uncertainty k = 0.283982
        32        14        20        60     9      180.000000       -0.518557         2    ;  uncertainty k = 0.212077
        32        14        20        60     9        0.000000       -0.078054         3    ;  uncertainty k = 0.110894
        32        14        20        60     9      180.000000        0.040284         4    ;  uncertainty k = 0.027626
        32        14        20        61     9        0.000000        1.378248         1    ;  uncertainty k = 0.283982
        32        14        20        61     9      180.000000       -0.518557         2    ;  uncertainty k = 0.212077
        32        14        20        61     9        0.000000       -0.078054         3    ;  uncertainty k = 0.110894
        32        14        20        61     9      180.000000        0.040284         4    ;  uncertainty k = 0.027626
        33        21        16        68     9        0.000000        0.541481         1    ;  uncertainty k = 0.398177
        33        21        16        68     9      180.000000       -0.622570         2    ;  uncertainty k = 0.184277
        33        21        16        68     9        0.000000        0.191619         3    ;  uncertainty k = 0.116496
        33        21        16        68     9      180.000000        0.189193         4    ;  uncertainty k = 0.076095
        34        35        36        37     9        0.000000       -4.140071         1    ;  uncertainty k = 1.925675
        34        35        36        37     9      180.000000        2.074247         2    ;  uncertainty k = 0.552905
        34        35        36        37     9        0.000000       -0.109904         3    ;  uncertainty k = 0.505232
        34        35        36        37     9      180.000000        0.002033         4    ;  uncertainty k = 0.168271
        34        35        36        41     9        0.000000        0.751076         1    ;  uncertainty k = 0.572851
        34        35        36        41     9      180.000000        0.321327         2    ;  uncertainty k = 0.277446
        34        35        36        41     9        0.000000       -0.191165         3    ;  uncertainty k = 0.140749
        34        35        36        41     9      180.000000       -0.337116         4    ;  uncertainty k = 0.203995
        34        35        36        42     9        0.000000        0.751076         1    ;  uncertainty k = 0.572851
        34        35        36        42     9      180.000000        0.321327         2    ;  uncertainty k = 0.277446
        34        35        36        42     9        0.000000       -0.191165         3    ;  uncertainty k = 0.140749
        34        35        36        42     9      180.000000       -0.337116         4    ;  uncertainty k = 0.203995
        34        39        38        37     9        0.000000       -2.230974         1    ;  uncertainty k = 1.801449
        34        39        38        37     9      180.000000       -1.841150         2    ;  uncertainty k = 0.733686
        34        39        38        37     9        0.000000        2.407959         3    ;  uncertainty k = 0.680334
        34        39        38        37     9      180.000000       -0.535745         4    ;  uncertainty k = 0.301690
        34        39        38        43     9        0.000000        1.199598         1    ;  uncertainty k = 0.377899
        34        39        38        43     9      180.000000       -1.613470         2    ;  uncertainty k = 0.549592
        34        39        38        43     9        0.000000        0.472706         3    ;  uncertainty k = 0.260800
        34        39        38        43     9      180.000000        0.111560         4    ;  uncertainty k = 0.091588
        34        39        38        44     9        0.000000        1.199598         1    ;  uncertainty k = 0.377899
        34        39        38        44     9      180.000000       -1.613470         2    ;  uncertainty k = 0.549592
        34        39        38        44     9        0.000000        0.472706         3    ;  uncertainty k = 0.260800
        34        39        38        44     9      180.000000        0.111560         4    ;  uncertainty k = 0.091588
        35        34        39        38     9        0.000000       -4.440652         1    ;  uncertainty k = 1.431166
        35        34        39        38     9      180.000000        4.155396         2    ;  uncertainty k = 1.296225
        35        34        39        38     9        0.000000       -0.642889         3    ;  uncertainty k = 0.597439
        35        34        39        38     9      180.000000       -0.217610         4    ;  uncertainty k = 0.318749
        35        34        39        45     9        0.000000        0.013025         1    ;  uncertainty k = 0.359065
        35        34        39        45     9      180.000000        1.250042         2    ;  uncertainty k = 0.490358
        35        34        39        45     9        0.000000        0.121610         3    ;  uncertainty k = 0.182463
        35        34        39        45     9      180.000000       -0.043715         4    ;  uncertainty k = 0.054548
        35        34        39        46     9        0.000000        0.013025         1    ;  uncertainty k = 0.359065
        35        34        39        46     9      180.000000        1.250042         2    ;  uncertainty k = 0.490358
        35        34        39        46     9        0.000000        0.121610         3    ;  uncertainty k = 0.182463
        35        34        39        46     9      180.000000       -0.043715         4    ;  uncertainty k = 0.054548
        35        36        37        38     9        0.000000       -2.931117         1    ;  uncertainty k = 2.436693
        35        36        37        38     9      180.000000       -1.451129         2    ;  uncertainty k = 0.464093
        35        36        37        38     9        0.000000        1.404828         3    ;  uncertainty k = 0.130307
        35        36        37        38     9      180.000000       -0.528609         4    ;  uncertainty k = 0.249297
        35        36        37        40     9        0.000000       -2.021362         1    ;  uncertainty k = 1.008927
        35        36        37        40     9      180.000000       -1.118312         2    ;  uncertainty k = 0.472230
        35        36        37        40     9        0.000000        1.258207         3    ;  uncertainty k = 0.234248
        35        36        37        40     9      180.000000       -0.045254         4    ;  uncertainty k = 0.250793
        36        35        34        39     9        0.000000        0.282381         1    ;  uncertainty k = 0.657141
        36        35        34        39     9      180.000000       10.551064         2    ;  uncertainty k = 0.221306
        36        35        34        39     9        0.000000        1.077819         3    ;  uncertainty k = 0.516713
        36        35        34        39     9      180.000000        0.991474         4    ;  uncertainty k = 0.186199
        36        37        38        39     9        0.000000       -4.350974         1    ;  uncertainty k = 2.057076
        36        37        38        39     9      180.000000       -1.496991         2    ;  uncertainty k = 0.799614
        36        37        38        39     9        0.000000        0.281379         3    ;  uncertainty k = 0.338606
        36        37        38        39     9      180.000000       -0.187310         4    ;  uncertainty k = 0.252807
        36        37        38        43     9        0.000000       -6.987612         1    ;  uncertainty k = 0.982733
        36        37        38        43     9      180.000000       -0.297910         2    ;  uncertainty k = 0.446998
        36        37        38        43     9        0.000000        0.675891         3    ;  uncertainty k = 0.207193
        36        37        38        43     9      180.000000       -0.045061         4    ;  uncertainty k = 0.100310
        36        37        38        44     9        0.000000       -6.987612         1    ;  uncertainty k = 0.982733
        36        37        38        44     9      180.000000       -0.297910         2    ;  uncertainty k = 0.446998
        36        37        38        44     9        0.000000        0.675891         3    ;  uncertainty k = 0.207193
        36        37        38        44     9      180.000000       -0.045061         4    ;  uncertainty k = 0.100310
        36        37        40        47     9        0.000000       -4.178510         1    ;  uncertainty k = 0.410688
        36        37        40        47     9      180.000000       -2.187807         2    ;  uncertainty k = 0.398638
        36        37        40        47     9        0.000000        1.157619         3    ;  uncertainty k = 0.069416
        36        37        40        47     9      180.000000        0.075129         4    ;  uncertainty k = 0.097696
        36        37        40        48     9        0.000000       -4.178510         1    ;  uncertainty k = 0.410688
        36        37        40        48     9      180.000000       -2.187807         2    ;  uncertainty k = 0.398638
        36        37        40        48     9        0.000000        1.157619         3    ;  uncertainty k = 0.069416
        36        37        40        48     9      180.000000        0.075129         4    ;  uncertainty k = 0.097696
        36        37        40        49     9        0.000000       -4.178510         1    ;  uncertainty k = 0.410688
        36        37        40        49     9      180.000000       -2.187807         2    ;  uncertainty k = 0.398638
        36        37        40        49     9        0.000000        1.157619         3    ;  uncertainty k = 0.069416
        36        37        40        49     9      180.000000        0.075129         4    ;  uncertainty k = 0.097696
        37        38        39        45     9        0.000000       -0.446420         1    ;  uncertainty k = 0.389425
        37        38        39        45     9      180.000000       -0.446895         2    ;  uncertainty k = 0.443633
        37        38        39        45     9        0.000000        1.043482         3    ;  uncertainty k = 0.139130
        37        38        39        45     9      180.000000       -0.054508         4    ;  uncertainty k = 0.166266
        37        38        39        46     9        0.000000       -0.446420         1    ;  uncertainty k = 0.389425
        37        38        39        46     9      180.000000       -0.446895         2    ;  uncertainty k = 0.443633
        37        38        39        46     9        0.000000        1.043482         3    ;  uncertainty k = 0.139130
        37        38        39        46     9      180.000000       -0.054508         4    ;  uncertainty k = 0.166266
        38        37        36        41     9        0.000000       -4.951174         1    ;  uncertainty k = 1.276230
        38        37        36        41     9      180.000000       -0.772512         2    ;  uncertainty k = 0.594344
        38        37        36        41     9        0.000000        0.687582         3    ;  uncertainty k = 0.234878
        38        37        36        41     9      180.000000        0.165440         4    ;  uncertainty k = 0.126758
        38        37        36        42     9        0.000000       -4.951174         1    ;  uncertainty k = 1.276230
        38        37        36        42     9      180.000000       -0.772512         2    ;  uncertainty k = 0.594344
        38        37        36        42     9        0.000000        0.687582         3    ;  uncertainty k = 0.234878
        38        37        36        42     9      180.000000        0.165440         4    ;  uncertainty k = 0.126758
        38        37        40        47     9        0.000000       -4.259086         1    ;  uncertainty k = 0.974846
        38        37        40        47     9      180.000000       -2.027003         2    ;  uncertainty k = 0.417753
        38        37        40        47     9        0.000000        1.017651         3    ;  uncertainty k = 0.103023
        38        37        40        47     9      180.000000        0.065258         4    ;  uncertainty k = 0.091860
        38        37        40        48     9        0.000000       -4.259086         1    ;  uncertainty k = 0.974846
        38        37        40        48     9      180.000000       -2.027003         2    ;  uncertainty k = 0.417753
        38        37        40        48     9        0.000000        1.017651         3    ;  uncertainty k = 0.103023
        38        37        40        48     9      180.000000        0.065258         4    ;  uncertainty k = 0.091860
        38        37        40        49     9        0.000000       -4.259086         1    ;  uncertainty k = 0.974846
        38        37        40        49     9      180.000000       -2.027003         2    ;  uncertainty k = 0.417753
        38        37        40        49     9        0.000000        1.017651         3    ;  uncertainty k = 0.103023
        38        37        40        49     9      180.000000        0.065258         4    ;  uncertainty k = 0.091860
        39        38        37        40     9        0.000000       -2.366425         1    ;  uncertainty k = 0.799682
        39        38        37        40     9      180.000000       -0.858215         2    ;  uncertainty k = 0.575132
        39        38        37        40     9        0.000000        0.300582         3    ;  uncertainty k = 0.302529
        39        38        37        40     9      180.000000        0.326407         4    ;  uncertainty k = 0.081722
        40        37        36        41     9        0.000000       -2.503106         1    ;  uncertainty k = 0.610923
        40        37        36        41     9      180.000000       -1.207857         2    ;  uncertainty k = 0.461275
        40        37        36        41     9        0.000000        0.607046         3    ;  uncertainty k = 0.147323
        40        37        36        41     9      180.000000        0.178325         4    ;  uncertainty k = 0.088460
        40        37        36        42     9        0.000000       -2.503106         1    ;  uncertainty k = 0.610923
        40        37        36        42     9      180.000000       -1.207857         2    ;  uncertainty k = 0.461275
        40        37        36        42     9        0.000000        0.607046         3    ;  uncertainty k = 0.147323
        40        37        36        42     9      180.000000        0.178325         4    ;  uncertainty k = 0.088460
        40        37        38        43     9        0.000000       -3.143701         1    ;  uncertainty k = 0.576024
        40        37        38        43     9      180.000000       -1.381403         2    ;  uncertainty k = 0.223671
        40        37        38        43     9        0.000000        0.354530         3    ;  uncertainty k = 0.126408
        40        37        38        43     9      180.000000        0.148173         4    ;  uncertainty k = 0.137426
        40        37        38        44     9        0.000000       -3.143701         1    ;  uncertainty k = 0.576024
        40        37        38        44     9      180.000000       -1.381403         2    ;  uncertainty k = 0.223671
        40        37        38        44     9        0.000000        0.354530         3    ;  uncertainty k = 0.126408
        40        37        38        44     9      180.000000        0.148173         4    ;  uncertainty k = 0.137426
        43        38        39        45     9        0.000000       -0.690419         1    ;  uncertainty k = 0.249272
        43        38        39        45     9      180.000000        0.819889         2    ;  uncertainty k = 0.297922
        43        38        39        45     9        0.000000        0.232501         3    ;  uncertainty k = 0.086816
        43        38        39        45     9      180.000000       -0.277806         4    ;  uncertainty k = 0.067741
        43        38        39        46     9        0.000000       -0.690419         1    ;  uncertainty k = 0.249272
        43        38        39        46     9      180.000000        0.819889         2    ;  uncertainty k = 0.297922
        43        38        39        46     9        0.000000        0.232501         3    ;  uncertainty k = 0.086816
        43        38        39        46     9      180.000000       -0.277806         4    ;  uncertainty k = 0.067741
        44        38        39        45     9        0.000000       -0.690419         1    ;  uncertainty k = 0.249272
        44        38        39        45     9      180.000000        0.819889         2    ;  uncertainty k = 0.297922
        44        38        39        45     9        0.000000        0.232501         3    ;  uncertainty k = 0.086816
        44        38        39        45     9      180.000000       -0.277806         4    ;  uncertainty k = 0.067741
        44        38        39        46     9        0.000000       -0.690419         1    ;  uncertainty k = 0.249272
        44        38        39        46     9      180.000000        0.819889         2    ;  uncertainty k = 0.297922
        44        38        39        46     9        0.000000        0.232501         3    ;  uncertainty k = 0.086816
        44        38        39        46     9      180.000000       -0.277806         4    ;  uncertainty k = 0.067741
        50        18        17        55     9        0.000000        2.074967         1    ;  uncertainty k = 0.921198
        50        18        17        55     9      180.000000       -0.794571         2    ;  uncertainty k = 0.180952
        50        18        17        55     9        0.000000        0.466866         3    ;  uncertainty k = 0.273235
        50        18        17        55     9      180.000000        0.035537         4    ;  uncertainty k = 0.093276
        50        18        17        56     9        0.000000        2.074967         1    ;  uncertainty k = 0.921198
        50        18        17        56     9      180.000000       -0.794571         2    ;  uncertainty k = 0.180952
        50        18        17        56     9        0.000000        0.466866         3    ;  uncertainty k = 0.273235
        50        18        17        56     9      180.000000        0.035537         4    ;  uncertainty k = 0.093276
        50        18        19        58     9        0.000000        2.252951         1    ;  uncertainty k = 0.998081
        50        18        19        58     9      180.000000       -0.859965         2    ;  uncertainty k = 0.120364
        50        18        19        58     9        0.000000        0.534711         3    ;  uncertainty k = 0.219264
        50        18        19        58     9      180.000000        0.057172         4    ;  uncertainty k = 0.086080
        50        18        19        59     9        0.000000        2.252951         1    ;  uncertainty k = 0.998081
        50        18        19        59     9      180.000000       -0.859965         2    ;  uncertainty k = 0.120364
        50        18        19        59     9        0.000000        0.534711         3    ;  uncertainty k = 0.219264
        50        18        19        59     9      180.000000        0.057172         4    ;  uncertainty k = 0.086080
        50        52        53        62     9        0.000000        0.159650         1    ;  uncertainty k = 0.146342
        50        52        53        62     9      180.000000       -0.144813         2    ;  uncertainty k = 0.094204
        50        52        53        62     9        0.000000        0.215227         3    ;  uncertainty k = 0.050987
        50        52        53        62     9      180.000000        0.244118         4    ;  uncertainty k = 0.052779
        50        52        53        63     9        0.000000        0.159650         1    ;  uncertainty k = 0.146342
        50        52        53        63     9      180.000000       -0.144813         2    ;  uncertainty k = 0.094204
        50        52        53        63     9        0.000000        0.215227         3    ;  uncertainty k = 0.050987
        50        52        53        63     9      180.000000        0.244118         4    ;  uncertainty k = 0.052779
        50        52        53        64     9        0.000000        0.159650         1    ;  uncertainty k = 0.146342
        50        52        53        64     9      180.000000       -0.144813         2    ;  uncertainty k = 0.094204
        50        52        53        64     9        0.000000        0.215227         3    ;  uncertainty k = 0.050987
        50        52        53        64     9      180.000000        0.244118         4    ;  uncertainty k = 0.052779
        50        52        54        65     9        0.000000        0.159650         1    ;  uncertainty k = 0.146342
        50        52        54        65     9      180.000000       -0.144813         2    ;  uncertainty k = 0.094204
        50        52        54        65     9        0.000000        0.215227         3    ;  uncertainty k = 0.050987
        50        52        54        65     9      180.000000        0.244118         4    ;  uncertainty k = 0.052779
        50        52        54        66     9        0.000000        0.159650         1    ;  uncertainty k = 0.146342
        50        52        54        66     9      180.000000       -0.144813         2    ;  uncertainty k = 0.094204
        50        52        54        66     9        0.000000        0.215227         3    ;  uncertainty k = 0.050987
        50        52        54        66     9      180.000000        0.244118         4    ;  uncertainty k = 0.052779
        50        52        54        67     9        0.000000        0.159650         1    ;  uncertainty k = 0.146342
        50        52        54        67     9      180.000000       -0.144813         2    ;  uncertainty k = 0.094204
        50        52        54        67     9        0.000000        0.215227         3    ;  uncertainty k = 0.050987
        50        52        54        67     9      180.000000        0.244118         4    ;  uncertainty k = 0.052779
        51        50        18        57     9        0.000000       -0.646773         1    ;  uncertainty k = 0.397646
        51        50        18        57     9      180.000000        3.762065         2    ;  uncertainty k = 0.492695
        51        50        18        57     9        0.000000        1.483897         3    ;  uncertainty k = 0.235291
        51        50        18        57     9      180.000000       -0.025919         4    ;  uncertainty k = 0.096422
        51        50        52        53     9        0.000000        6.844605         1    ;  uncertainty k = 0.882211
        51        50        52        53     9      180.000000       19.790839         2    ;  uncertainty k = 0.105250
        51        50        52        53     9        0.000000       -0.220230         3    ;  uncertainty k = 0.161100
        51        50        52        53     9      180.000000       -1.123904         4    ;  uncertainty k = 0.136735
        51        50        52        54     9        0.000000        6.844605         1    ;  uncertainty k = 0.882211
        51        50        52        54     9      180.000000       19.790839         2    ;  uncertainty k = 0.105250
        51        50        52        54     9        0.000000       -0.220230         3    ;  uncertainty k = 0.161100
        51        50        52        54     9      180.000000       -1.123904         4    ;  uncertainty k = 0.136735
        52        50        18        57     9        0.000000       -0.975826         1    ;  uncertainty k = 0.419407
        52        50        18        57     9      180.000000        2.303974         2    ;  uncertainty k = 0.241164
        52        50        18        57     9        0.000000        0.361698         3    ;  uncertainty k = 0.116719
        52        50        18        57     9      180.000000        0.170218         4    ;  uncertainty k = 0.047482
        53        52        54        65     9        0.000000       -0.681994         1    ;  uncertainty k = 0.166187
        53        52        54        65     9      180.000000       -1.033629         2    ;  uncertainty k = 0.139918
        53        52        54        65     9        0.000000        1.312135         3    ;  uncertainty k = 0.057549
        53        52        54        65     9      180.000000        0.172025         4    ;  uncertainty k = 0.029064
        53        52        54        66     9        0.000000       -0.681994         1    ;  uncertainty k = 0.166187
        53        52        54        66     9      180.000000       -1.033629         2    ;  uncertainty k = 0.139918
        53        52        54        66     9        0.000000        1.312135         3    ;  uncertainty k = 0.057549
        53        52        54        66     9      180.000000        0.172025         4    ;  uncertainty k = 0.029064
        53        52        54        67     9        0.000000       -0.681994         1    ;  uncertainty k = 0.166187
        53        52        54        67     9      180.000000       -1.033629         2    ;  uncertainty k = 0.139918
        53        52        54        67     9        0.000000        1.312135         3    ;  uncertainty k = 0.057549
        53        52        54        67     9      180.000000        0.172025         4    ;  uncertainty k = 0.029064
        54        52        53        62     9        0.000000       -0.681994         1    ;  uncertainty k = 0.166187
        54        52        53        62     9      180.000000       -1.033629         2    ;  uncertainty k = 0.139918
        54        52        53        62     9        0.000000        1.312135         3    ;  uncertainty k = 0.057549
        54        52        53        62     9      180.000000        0.172025         4    ;  uncertainty k = 0.029064
        54        52        53        63     9        0.000000       -0.681994         1    ;  uncertainty k = 0.166187
        54        52        53        63     9      180.000000       -1.033629         2    ;  uncertainty k = 0.139918
        54        52        53        63     9        0.000000        1.312135         3    ;  uncertainty k = 0.057549
        54        52        53        63     9      180.000000        0.172025         4    ;  uncertainty k = 0.029064
        54        52        53        64     9        0.000000       -0.681994         1    ;  uncertainty k = 0.166187
        54        52        53        64     9      180.000000       -1.033629         2    ;  uncertainty k = 0.139918
        54        52        53        64     9        0.000000        1.312135         3    ;  uncertainty k = 0.057549
        54        52        53        64     9      180.000000        0.172025         4    ;  uncertainty k = 0.029064
        55        17        16        68     9        0.000000        1.227188         1    ;  uncertainty k = 0.333718
        55        17        16        68     9      180.000000       -0.559059         2    ;  uncertainty k = 0.228850
        55        17        16        68     9        0.000000       -0.052658         3    ;  uncertainty k = 0.148156
        55        17        16        68     9      180.000000        0.050866         4    ;  uncertainty k = 0.043410
        55        17        18        57     9        0.000000        1.275091         1    ;  uncertainty k = 0.308666
        55        17        18        57     9      180.000000       -0.191825         2    ;  uncertainty k = 0.161770
        55        17        18        57     9        0.000000       -0.005639         3    ;  uncertainty k = 0.106020
        55        17        18        57     9      180.000000        0.069270         4    ;  uncertainty k = 0.064132
        56        17        16        68     9        0.000000        1.227188         1    ;  uncertainty k = 0.333718
        56        17        16        68     9      180.000000       -0.559059         2    ;  uncertainty k = 0.228850
        56        17        16        68     9        0.000000       -0.052658         3    ;  uncertainty k = 0.148156
        56        17        16        68     9      180.000000        0.050866         4    ;  uncertainty k = 0.043410
        56        17        18        57     9        0.000000        1.275091         1    ;  uncertainty k = 0.308666
        56        17        18        57     9      180.000000       -0.191825         2    ;  uncertainty k = 0.161770
        56        17        18        57     9        0.000000       -0.005639         3    ;  uncertainty k = 0.106020
        56        17        18        57     9      180.000000        0.069270         4    ;  uncertainty k = 0.064132
        57        18        19        58     9        0.000000        1.375228         1    ;  uncertainty k = 0.292892
        57        18        19        58     9      180.000000       -0.112288         2    ;  uncertainty k = 0.227466
        57        18        19        58     9        0.000000       -0.024960         3    ;  uncertainty k = 0.142904
        57        18        19        58     9      180.000000        0.069958         4    ;  uncertainty k = 0.050452
        57        18        19        59     9        0.000000        1.375228         1    ;  uncertainty k = 0.292892
        57        18        19        59     9      180.000000       -0.112288         2    ;  uncertainty k = 0.227466
        57        18        19        59     9        0.000000       -0.024960         3    ;  uncertainty k = 0.142904
        57        18        19        59     9      180.000000        0.069958         4    ;  uncertainty k = 0.050452
        58        19        20        60     9        0.000000        2.326715         1    ;  uncertainty k = 0.674870
        58        19        20        60     9      180.000000       -0.090546         2    ;  uncertainty k = 0.158885
        58        19        20        60     9        0.000000        0.306144         3    ;  uncertainty k = 0.135782
        58        19        20        60     9      180.000000        0.130862         4    ;  uncertainty k = 0.038651
        58        19        20        61     9        0.000000        2.326715         1    ;  uncertainty k = 0.674870
        58        19        20        61     9      180.000000       -0.090546         2    ;  uncertainty k = 0.158885
        58        19        20        61     9        0.000000        0.306144         3    ;  uncertainty k = 0.135782
        58        19        20        61     9      180.000000        0.130862         4    ;  uncertainty k = 0.038651
        59        19        20        60     9        0.000000        2.326715         1    ;  uncertainty k = 0.674870
        59        19        20        60     9      180.000000       -0.090546         2    ;  uncertainty k = 0.158885
        59        19        20        60     9        0.000000        0.306144         3    ;  uncertainty k = 0.135782
        59        19        20        60     9      180.000000        0.130862         4    ;  uncertainty k = 0.038651
        59        19        20        61     9        0.000000        2.326715         1    ;  uncertainty k = 0.674870
        59        19        20        61     9      180.000000       -0.090546         2    ;  uncertainty k = 0.158885
        59        19        20        61     9        0.000000        0.306144         3    ;  uncertainty k = 0.135782
        59        19        20        61     9      180.000000        0.130862         4    ;  uncertainty k = 0.038651
        69         6         7        70     9        0.000000        1.559823         1    ;  uncertainty k = 1.628981
        69         6         7        70     9      180.000000        9.450656         2    ;  uncertainty k = 0.769590
        69         6         7        70     9        0.000000        0.774312         3    ;  uncertainty k = 0.616539
        69         6         7        70     9      180.000000        0.043996         4    ;  uncertainty k = 0.287572

[ dihedrals ] ; impropers
;       ai        aj        ak        al funct           phase               k        pn
         1         3         7        11     4      180.000000       18.824587         2    ;  uncertainty k = 0.118909
         1         7        11         3     4      180.000000       18.824587         2    ;  uncertainty k = 0.118909
         1        11         3         7     4      180.000000       18.824587         2    ;  uncertainty k = 0.118909
         3         1         4         8     4      180.000000        5.669508         2    ;  uncertainty k = 0.435480
         3         4         8         1     4      180.000000        5.669508         2    ;  uncertainty k = 0.435480
         3         8         1         4     4      180.000000        5.669508         2    ;  uncertainty k = 0.435480
         4         3         5        27     4      180.000000        9.979404         2    ;  uncertainty k = 0.187059
         4         5        27         3     4      180.000000        9.979404         2    ;  uncertainty k = 0.187059
         4        27         3         5     4      180.000000        9.979404         2    ;  uncertainty k = 0.187059
         5         4         6        12     4      180.000000        7.709820         2    ;  uncertainty k = 0.376193
         5         6        12         4     4      180.000000        7.709820         2    ;  uncertainty k = 0.376193
         5        12         4         6     4      180.000000        7.709820         2    ;  uncertainty k = 0.376193
         6         5         7        69     4      180.000000       51.602784         2    ;  uncertainty k = 0.050737
         6         7        69         5     4      180.000000       51.602784         2    ;  uncertainty k = 0.050737
         6        69         5         7     4      180.000000       51.602784         2    ;  uncertainty k = 0.050737
         7         1         6        70     4      180.000000        1.115489         2    ;  uncertainty k = 0.895471
         7         6        70         1     4      180.000000        1.115489         2    ;  uncertainty k = 0.895471
         7        70         1         6     4      180.000000        1.115489         2    ;  uncertainty k = 0.895471
         8         3         9        28     4      180.000000        4.950740         2    ;  uncertainty k = 0.161071
         8         9        28         3     4      180.000000        4.950740         2    ;  uncertainty k = 0.161071
         8        28         3         9     4      180.000000        4.950740         2    ;  uncertainty k = 0.161071
         9         8        10        29     4      180.000000        2.674555         2    ;  uncertainty k = 0.141221
         9        10        29         8     4      180.000000        2.674555         2    ;  uncertainty k = 0.141221
         9        29         8        10     4      180.000000        2.674555         2    ;  uncertainty k = 0.141221
        10         2         9        11     4      180.000000       15.307017         2    ;  uncertainty k = 0.022253
        10         9        11         2     4      180.000000       15.307017         2    ;  uncertainty k = 0.022253
        10        11         2         9     4      180.000000       15.307017         2    ;  uncertainty k = 0.022253
        11         1        10        30     4      180.000000        1.682136         2    ;  uncertainty k = 0.602064
        11        10        30         1     4      180.000000        1.682136         2    ;  uncertainty k = 0.602064
        11        30         1        10     4      180.000000        1.682136         2    ;  uncertainty k = 0.602064
        12         5        13        15     4      180.000000       51.892901         2    ;  uncertainty k = 0.066624
        12        13        15         5     4      180.000000       51.892901         2    ;  uncertainty k = 0.066624
        12        15         5        13     4      180.000000       51.892901         2    ;  uncertainty k = 0.066624
        13        12        14        31     4      180.000000        0.720906         2    ;  uncertainty k = 0.762214
        13        14        31        12     4      180.000000        0.720906         2    ;  uncertainty k = 0.762214
        13        31        12        14     4      180.000000        0.720906         2    ;  uncertainty k = 0.762214
        22        21        23        24     4      180.000000       49.476644         2    ;  uncertainty k = 0.014914
        22        23        24        21     4      180.000000       49.476644         2    ;  uncertainty k = 0.014914
        22        24        21        23     4      180.000000       49.476644         2    ;  uncertainty k = 0.014914
        23        22        25        26     4      180.000000        4.762177         2    ;  uncertainty k = 0.485670
        23        25        26        22     4      180.000000        4.762177         2    ;  uncertainty k = 0.485670
        23        26        22        25     4      180.000000        4.762177         2    ;  uncertainty k = 0.485670
        34        25        35        39     4      180.000000       10.302524         2    ;  uncertainty k = 0.235813
        34        35        39        25     4      180.000000       10.302524         2    ;  uncertainty k = 0.235813
        34        39        25        35     4      180.000000       10.302524         2    ;  uncertainty k = 0.235813
        35        26        34        36     4      180.000000        2.894551         2    ;  uncertainty k = 0.672593
        35        34        36        26     4      180.000000        2.894551         2    ;  uncertainty k = 0.672593
        35        36        26        34     4      180.000000        2.894551         2    ;  uncertainty k = 0.672593
        50        18        51        52     4      180.000000       51.316640         2    ;  uncertainty k = 0.028239
        50        51        52        18     4      180.000000       51.316640         2    ;  uncertainty k = 0.028239
        50        52        18        51     4      180.000000       51.316640         2    ;  uncertainty k = 0.028239

[ pairs ]
;       ai        aj funct
         1         2     1
         1         5     1
         1         9     1
         1        27     1
         1        28     1
         1        69     1
         2         8     1
         2        29     1
         2        30     1
         3         6     1
         3        10     1
         3        12     1
         3        29     1
         3        30     1
         3        70     1
         4         7     1
         4         9     1
         4        11     1
         4        13     1
         4        15     1
         4        28     1
         4        69     1
         5         8     1
         5        14     1
         5        31     1
         5        70     1
         6        11     1
         6        13     1
         6        15     1
         6        27     1
         7         8     1
         7        10     1
         7        12     1
         7        30     1
         8        11     1
         8        27     1
         9        30     1
        10        28     1
        11        29     1
        11        70     1
        12        16     1
        12        20     1
        12        27     1
        12        32     1
        12        69     1
        13        17     1
        13        19     1
        13        21     1
        13        60     1
        13        61     1
        13        68     1
        14        15     1
        14        18     1
        14        22     1
        14        33     1
        14        55     1
        14        56     1
        14        58     1
        14        59     1
        15        31     1
        16        19     1
        16        23     1
        16        24     1
        16        31     1
        16        50     1
        16        57     1
        16        60     1
        16        61     1
        17        20     1
        17        22     1
        17        32     1
        17        33     1
        17        51     1
        17        52     1
        17        58     1
        17        59     1
        18        21     1
        18        53     1
        18        54     1
        18        60     1
        18        61     1
        18        68     1
        19        32     1
        19        51     1
        19        52     1
        19        55     1
        19        56     1
        20        21     1
        20        31     1
        20        50     1
        20        57     1
        20        68     1
        21        25     1
        21        26     1
        21        32     1
        21        55     1
        21        56     1
        22        34     1
        22        35     1
        22        68     1
        23        33     1
        23        36     1
        23        39     1
        24        25     1
        24        26     1
        24        33     1
        25        36     1
        25        38     1
        25        45     1
        25        46     1
        26        37     1
        26        39     1
        26        41     1
        26        42     1
        28        29     1
        31        32     1
        32        60     1
        32        61     1
        32        68     1
        33        68     1
        34        37     1
        34        41     1
        34        42     1
        34        43     1
        34        44     1
        35        38     1
        35        40     1
        35        45     1
        35        46     1
        36        39     1
        36        43     1
        36        44     1
        36        47     1
        36        48     1
        36        49     1
        37        45     1
        37        46     1
        38        41     1
        38        42     1
        38        47     1
        38        48     1
        38        49     1
        39        40     1
        40        41     1
        40        42     1
        40        43     1
        40        44     1
        43        45     1
        43        46     1
        44        45     1
        44        46     1
        50        55     1
        50        56     1
        50        58     1
        50        59     1
        50        62     1
        50        63     1
        50        64     1
        50        65     1
        50        66     1
        50        67     1
        51        53     1
        51        54     1
        51        57     1
        52        57     1
        53        65     1
        53        66     1
        53        67     1
        54        62     1
        54        63     1
        54        64     1
        55        57     1
        55        68     1
        56        57     1
        56        68     1
        57        58     1
        57        59     1
        58        60     1
        58        61     1
        59        60     1
        59        61     1
        69        70     1
