; ITP file created by ByteFF-joint-25, 2025-07-14 11:37:45.322592

[ atomtypes ]
;name           bonded.type        at.num        mass        charge   ptype           sigma         epsilon
 c0bf                                   6      0.0000       0.00000       A     3.31488e-01     4.12486e-01    ;  uncertainty sigma = 0.000026, epsilon = 0.001481
 cl1bf                                 17      0.0000       0.00000       A     3.46609e-01     1.10409e+00    ;  uncertainty sigma = 0.000017, epsilon = 0.000851
 c2bf                                   6      0.0000       0.00000       A     3.31563e-01     4.12519e-01    ;  uncertainty sigma = 0.000022, epsilon = 0.000503
 n3bf                                   7      0.0000       0.00000       A     3.27545e-01     6.42330e-01    ;  uncertainty sigma = 0.000223, epsilon = 0.007545
 c4bf                                   6      0.0000       0.00000       A     3.31585e-01     4.16011e-01    ;  uncertainty sigma = 0.000061, epsilon = 0.006098
 n5bf                                   7      0.0000       0.00000       A     3.38319e-01     3.92933e-01    ;  uncertainty sigma = 0.000071, epsilon = 0.004989
 c6bf                                   6      0.0000       0.00000       A     3.31531e-01     4.13546e-01    ;  uncertainty sigma = 0.000013, epsilon = 0.000523
 c7bf                                   6      0.0000       0.00000       A     3.31524e-01     4.13348e-01    ;  uncertainty sigma = 0.000004, epsilon = 0.000653
 c8bf                                   6      0.0000       0.00000       A     3.31535e-01     4.13258e-01    ;  uncertainty sigma = 0.000005, epsilon = 0.000433
 c9bf                                   6      0.0000       0.00000       A     3.31531e-01     4.13321e-01    ;  uncertainty sigma = 0.000015, epsilon = 0.000749
 c10bf                                  6      0.0000       0.00000       A     3.31454e-01     4.12860e-01    ;  uncertainty sigma = 0.000063, epsilon = 0.002097
 n11bf                                  7      0.0000       0.00000       A     3.26988e-01     4.88259e-01    ;  uncertainty sigma = 0.000050, epsilon = 0.002786
 c12bf                                  6      0.0000       0.00000       A     3.39789e-01     4.50818e-01    ;  uncertainty sigma = 0.000020, epsilon = 0.000930
 o13bf                                  8      0.0000       0.00000       A     3.04808e-01     6.12631e-01    ;  uncertainty sigma = 0.000026, epsilon = 0.001868
 c14bf                                  6      0.0000       0.00000       A     3.39779e-01     4.50691e-01    ;  uncertainty sigma = 0.000021, epsilon = 0.001068
 c15bf                                  6      0.0000       0.00000       A     3.39785e-01     4.51177e-01    ;  uncertainty sigma = 0.000013, epsilon = 0.000568
 c16bf                                  6      0.0000       0.00000       A     3.39788e-01     4.50813e-01    ;  uncertainty sigma = 0.000005, epsilon = 0.001015
 c17bf                                  6      0.0000       0.00000       A     3.39784e-01     4.51089e-01    ;  uncertainty sigma = 0.000005, epsilon = 0.000646
 c18bf                                  6      0.0000       0.00000       A     3.39763e-01     4.50994e-01    ;  uncertainty sigma = 0.000009, epsilon = 0.000666
 n19bf                                  7      0.0000       0.00000       A     3.27037e-01     4.89849e-01    ;  uncertainty sigma = 0.000029, epsilon = 0.003194
 c20bf                                  6      0.0000       0.00000       A     3.31529e-01     4.12690e-01    ;  uncertainty sigma = 0.000018, epsilon = 0.001128
 c21bf                                  6      0.0000       0.00000       A     3.31525e-01     4.13652e-01    ;  uncertainty sigma = 0.000013, epsilon = 0.001225
 o22bf                                  8      0.0000       0.00000       A     3.04890e-01     6.12219e-01    ;  uncertainty sigma = 0.000024, epsilon = 0.000874
 n23bf                                  7      0.0000       0.00000       A     3.38354e-01     3.93161e-01    ;  uncertainty sigma = 0.000020, epsilon = 0.001245
 s24bf                                 16      0.0000       0.00000       A     3.53288e-01     1.18179e+00    ;  uncertainty sigma = 0.000032, epsilon = 0.002346
 h25bf                                  1      0.0000       0.00000       A     2.62553e-01     6.69367e-02    ;  uncertainty sigma = 0.000015, epsilon = 0.000593
 h26bf                                  1      0.0000       0.00000       A     2.62553e-01     6.70562e-02    ;  uncertainty sigma = 0.000011, epsilon = 0.000615
 h27bf                                  1      0.0000       0.00000       A     2.62612e-01     6.71586e-02    ;  uncertainty sigma = 0.000024, epsilon = 0.000562
 h28bf                                  1      0.0000       0.00000       A     1.10678e-01     4.15242e-02    ;  uncertainty sigma = 0.000112, epsilon = 0.000955
 h29bf                                  1      0.0000       0.00000       A     2.42165e-01     8.67649e-02    ;  uncertainty sigma = 0.000033, epsilon = 0.001355
 h30bf                                  1      0.0000       0.00000       A     1.10666e-01     4.15404e-02    ;  uncertainty sigma = 0.000113, epsilon = 0.000907
 c31bf                                  6      0.0000       0.00000       A     3.31531e-01     4.13284e-01    ;  uncertainty sigma = 0.000022, epsilon = 0.000692
 c32bf                                  6      0.0000       0.00000       A     3.31510e-01     4.13232e-01    ;  uncertainty sigma = 0.000021, epsilon = 0.000971
 c33bf                                  6      0.0000       0.00000       A     3.39772e-01     4.51291e-01    ;  uncertainty sigma = 0.000007, epsilon = 0.001369
 n34bf                                  7      0.0000       0.00000       A     3.36491e-01     3.58344e-01    ;  uncertainty sigma = 0.000019, epsilon = 0.001758
 c35bf                                  6      0.0000       0.00000       A     3.39770e-01     4.51225e-01    ;  uncertainty sigma = 0.000009, epsilon = 0.000671
 c36bf                                  6      0.0000       0.00000       A     3.39762e-01     4.51164e-01    ;  uncertainty sigma = 0.000008, epsilon = 0.001424
 c37bf                                  6      0.0000       0.00000       A     3.39770e-01     4.51318e-01    ;  uncertainty sigma = 0.000003, epsilon = 0.000740
 h38bf                                  1      0.0000       0.00000       A     2.42250e-01     8.62902e-02    ;  uncertainty sigma = 0.000037, epsilon = 0.000964
 h39bf                                  1      0.0000       0.00000       A     2.42250e-01     8.62902e-02    ;  uncertainty sigma = 0.000037, epsilon = 0.000964
 h40bf                                  1      0.0000       0.00000       A     2.42218e-01     8.69005e-02    ;  uncertainty sigma = 0.000021, epsilon = 0.000739
 h41bf                                  1      0.0000       0.00000       A     2.42218e-01     8.69005e-02    ;  uncertainty sigma = 0.000021, epsilon = 0.000739
 h42bf                                  1      0.0000       0.00000       A     2.60015e-01     8.68230e-02    ;  uncertainty sigma = 0.000020, epsilon = 0.000739
 h43bf                                  1      0.0000       0.00000       A     2.60015e-01     8.68230e-02    ;  uncertainty sigma = 0.000020, epsilon = 0.000739
 h44bf                                  1      0.0000       0.00000       A     2.42198e-01     8.68693e-02    ;  uncertainty sigma = 0.000014, epsilon = 0.000543
 h45bf                                  1      0.0000       0.00000       A     2.42198e-01     8.68693e-02    ;  uncertainty sigma = 0.000014, epsilon = 0.000543
 h46bf                                  1      0.0000       0.00000       A     2.42198e-01     8.68693e-02    ;  uncertainty sigma = 0.000014, epsilon = 0.000543
 c47bf                                  6      0.0000       0.00000       A     3.31545e-01     4.13066e-01    ;  uncertainty sigma = 0.000011, epsilon = 0.001034
 o48bf                                  8      0.0000       0.00000       A     3.04819e-01     6.12467e-01    ;  uncertainty sigma = 0.000013, epsilon = 0.000996
 n49bf                                  7      0.0000       0.00000       A     3.18136e-01     6.84509e-01    ;  uncertainty sigma = 0.000019, epsilon = 0.001339
 c50bf                                  6      0.0000       0.00000       A     3.39777e-01     4.50876e-01    ;  uncertainty sigma = 0.000006, epsilon = 0.000504
 c51bf                                  6      0.0000       0.00000       A     3.39777e-01     4.50876e-01    ;  uncertainty sigma = 0.000006, epsilon = 0.000504
 h52bf                                  1      0.0000       0.00000       A     2.60016e-01     8.65219e-02    ;  uncertainty sigma = 0.000021, epsilon = 0.000613
 h53bf                                  1      0.0000       0.00000       A     2.60016e-01     8.65219e-02    ;  uncertainty sigma = 0.000021, epsilon = 0.000613
 h54bf                                  1      0.0000       0.00000       A     2.60030e-01     8.70270e-02    ;  uncertainty sigma = 0.000011, epsilon = 0.000538
 h55bf                                  1      0.0000       0.00000       A     2.60020e-01     8.66352e-02    ;  uncertainty sigma = 0.000016, epsilon = 0.000625
 h56bf                                  1      0.0000       0.00000       A     2.60020e-01     8.66352e-02    ;  uncertainty sigma = 0.000016, epsilon = 0.000625
 h57bf                                  1      0.0000       0.00000       A     2.60024e-01     8.67210e-02    ;  uncertainty sigma = 0.000008, epsilon = 0.000629
 h58bf                                  1      0.0000       0.00000       A     2.60024e-01     8.67210e-02    ;  uncertainty sigma = 0.000008, epsilon = 0.000629
 h59bf                                  1      0.0000       0.00000       A     2.42196e-01     8.67627e-02    ;  uncertainty sigma = 0.000011, epsilon = 0.000510
 h60bf                                  1      0.0000       0.00000       A     2.42196e-01     8.67627e-02    ;  uncertainty sigma = 0.000011, epsilon = 0.000510
 h61bf                                  1      0.0000       0.00000       A     2.42196e-01     8.67627e-02    ;  uncertainty sigma = 0.000011, epsilon = 0.000510
 h62bf                                  1      0.0000       0.00000       A     2.42196e-01     8.67627e-02    ;  uncertainty sigma = 0.000011, epsilon = 0.000510
 h63bf                                  1      0.0000       0.00000       A     2.42196e-01     8.67627e-02    ;  uncertainty sigma = 0.000011, epsilon = 0.000510
 h64bf                                  1      0.0000       0.00000       A     2.42196e-01     8.67627e-02    ;  uncertainty sigma = 0.000011, epsilon = 0.000510
 h65bf                                  1      0.0000       0.00000       A     2.42143e-01     8.68216e-02    ;  uncertainty sigma = 0.000035, epsilon = 0.001353
 h66bf                                  1      0.0000       0.00000       A     1.10750e-01     4.08203e-02    ;  uncertainty sigma = 0.000212, epsilon = 0.000964
 s67bf                                 16      0.0000       0.00000       A     4.05857e-01     2.57173e-01    ;  uncertainty sigma = 0.000030, epsilon = 0.001285
 o68bf                                  8      0.0000       0.00000       A     3.04813e-01     6.12485e-01    ;  uncertainty sigma = 0.000025, epsilon = 0.002386
 o69bf                                  8      0.0000       0.00000       A     3.04813e-01     6.12485e-01    ;  uncertainty sigma = 0.000025, epsilon = 0.002386

[ moleculetype ]
;name             nrexcl
 MOL                   3

[ atoms ]
;       nr            type      resi   res      atom      cgnr      charge          mass ; qtot
         1            c0bf         1   UNL        c0         1    -0.30983       12.0110 ; qtot   -0.310
         2           cl1bf         1   UNL       cl1         2    -0.09675       35.4530 ; qtot   -0.407
         3            c2bf         1   UNL        c2         3     0.21735       12.0110 ; qtot   -0.189
         4            n3bf         1   UNL        n3         4    -0.71278       14.0070 ; qtot   -0.902
         5            c4bf         1   UNL        c4         5     0.69971       12.0110 ; qtot   -0.202
         6            n5bf         1   UNL        n5         6    -0.74002       14.0070 ; qtot   -0.942
         7            c6bf         1   UNL        c6         7    -0.16584       12.0110 ; qtot   -1.108
         8            c7bf         1   UNL        c7         8    -0.03698       12.0110 ; qtot   -1.145
         9            c8bf         1   UNL        c8         9    -0.01778       12.0110 ; qtot   -1.163
        10            c9bf         1   UNL        c9        10     0.01305       12.0110 ; qtot   -1.150
        11           c10bf         1   UNL       c10        11     0.58384       12.0110 ; qtot   -0.566
        12           n11bf         1   UNL       n11        12    -0.52210       14.0070 ; qtot   -1.088
        13           c12bf         1   UNL       c12        13     0.10197       12.0110 ; qtot   -0.986
        14           o13bf         1   UNL       o13        14    -0.58582       15.9990 ; qtot   -1.572
        15           c14bf         1   UNL       c14        15     0.10500       12.0110 ; qtot   -1.467
        16           c15bf         1   UNL       c15        16    -0.07517       12.0110 ; qtot   -1.542
        17           c16bf         1   UNL       c16        17    -0.13250       12.0110 ; qtot   -1.675
        18           c17bf         1   UNL       c17        18    -0.06578       12.0110 ; qtot   -1.740
        19           c18bf         1   UNL       c18        19    -0.08721       12.0110 ; qtot   -1.828
        20           n19bf         1   UNL       n19        20    -0.55641       14.0070 ; qtot   -2.384
        21           c20bf         1   UNL       c20        21     0.59414       12.0110 ; qtot   -1.790
        22           c21bf         1   UNL       c21        22     0.37509       12.0110 ; qtot   -1.415
        23           o22bf         1   UNL       o22        23    -0.57698       15.9990 ; qtot   -1.992
        24           n23bf         1   UNL       n23        24    -0.60853       14.0070 ; qtot   -2.600
        25           s24bf         1   UNL       s24        25    -0.11954       32.0670 ; qtot   -2.720
        26           h25bf         1   UNL       h25        26     0.15109        1.0080 ; qtot   -2.569
        27           h26bf         1   UNL       h26        27     0.15746        1.0080 ; qtot   -2.411
        28           h27bf         1   UNL       h27        28     0.17170        1.0080 ; qtot   -2.240
        29           h28bf         1   UNL       h28        29     0.34695        1.0080 ; qtot   -1.893
        30           h29bf         1   UNL       h29        30     0.07767        1.0080 ; qtot   -1.815
        31           h30bf         1   UNL       h30        31     0.33735        1.0080 ; qtot   -1.478
        32           c31bf         1   UNL       c31        32     0.34886       12.0110 ; qtot   -1.129
        33           c32bf         1   UNL       c32        33    -0.15290       12.0110 ; qtot   -1.282
        34           c33bf         1   UNL       c33        34     0.24342       12.0110 ; qtot   -1.038
        35           n34bf         1   UNL       n34        35    -0.71265       14.0070 ; qtot   -1.751
        36           c35bf         1   UNL       c35        36     0.15896       12.0110 ; qtot   -1.592
        37           c36bf         1   UNL       c36        37    -0.11292       12.0110 ; qtot   -1.705
        38           c37bf         1   UNL       c37        38     0.14692       12.0110 ; qtot   -1.558
        39           h38bf         1   UNL       h38        39     0.05218        1.0080 ; qtot   -1.506
        40           h39bf         1   UNL       h39        40     0.05218        1.0080 ; qtot   -1.454
        41           h40bf         1   UNL       h40        41     0.04542        1.0080 ; qtot   -1.408
        42           h41bf         1   UNL       h41        42     0.04542        1.0080 ; qtot   -1.363
        43           h42bf         1   UNL       h42        43     0.06419        1.0080 ; qtot   -1.299
        44           h43bf         1   UNL       h43        44     0.06419        1.0080 ; qtot   -1.234
        45           h44bf         1   UNL       h44        45     0.03530        1.0080 ; qtot   -1.199
        46           h45bf         1   UNL       h45        46     0.03530        1.0080 ; qtot   -1.164
        47           h46bf         1   UNL       h46        47     0.03530        1.0080 ; qtot   -1.128
        48           c47bf         1   UNL       c47        48     0.67193       12.0110 ; qtot   -0.457
        49           o48bf         1   UNL       o48        49    -0.60797       15.9990 ; qtot   -1.065
        50           n49bf         1   UNL       n49        50    -0.49029       14.0070 ; qtot   -1.555
        51           c50bf         1   UNL       c50        51     0.08466       12.0110 ; qtot   -1.470
        52           c51bf         1   UNL       c51        52     0.08466       12.0110 ; qtot   -1.385
        53           h52bf         1   UNL       h52        53     0.06150        1.0080 ; qtot   -1.324
        54           h53bf         1   UNL       h53        54     0.06150        1.0080 ; qtot   -1.262
        55           h54bf         1   UNL       h54        55     0.06422        1.0080 ; qtot   -1.198
        56           h55bf         1   UNL       h55        56     0.05208        1.0080 ; qtot   -1.146
        57           h56bf         1   UNL       h56        57     0.05208        1.0080 ; qtot   -1.094
        58           h57bf         1   UNL       h57        58     0.05522        1.0080 ; qtot   -1.039
        59           h58bf         1   UNL       h58        59     0.05522        1.0080 ; qtot   -0.984
        60           h59bf         1   UNL       h59        60     0.04383        1.0080 ; qtot   -0.940
        61           h60bf         1   UNL       h60        61     0.04383        1.0080 ; qtot   -0.896
        62           h61bf         1   UNL       h61        62     0.04383        1.0080 ; qtot   -0.852
        63           h62bf         1   UNL       h62        63     0.04383        1.0080 ; qtot   -0.808
        64           h63bf         1   UNL       h63        64     0.04383        1.0080 ; qtot   -0.765
        65           h64bf         1   UNL       h64        65     0.04383        1.0080 ; qtot   -0.721
        66           h65bf         1   UNL       h65        66     0.07881        1.0080 ; qtot   -0.642
        67           h66bf         1   UNL       h66        67     0.50739        1.0080 ; qtot   -0.134
        68           s67bf         1   UNL       s67        68     1.29041       32.0670 ; qtot    1.156
        69           o68bf         1   UNL       o68        69    -0.57795       15.9990 ; qtot    0.578
        70           o69bf         1   UNL       o69        70    -0.57797       15.9990 ; qtot   -0.000

[ bonds ]
;       ai        aj funct               r               k
         1         3     1        0.140472   434311.713184    ;  uncertainty r = 0.000151, k = 19.861767
         1        10     1        0.139031   358470.737500    ;  uncertainty r = 0.000085, k = 6.106274
         1        68     1        0.178863   157719.396460    ;  uncertainty r = 0.000134, k = 35.478439
         2         9     1        0.175349   200243.241943    ;  uncertainty r = 0.000116, k = 9.531216
         3         4     1        0.140166   399396.662207    ;  uncertainty r = 0.000179, k = 34.607113
         3         7     1        0.140176   358008.975488    ;  uncertainty r = 0.000056, k = 7.356376
         4         5     1        0.135836   281594.947070    ;  uncertainty r = 0.000407, k = 47.525998
         4        67     1        0.102383   404862.318652    ;  uncertainty r = 0.000212, k = 10.459415
         5         6     1        0.130041   537355.686035    ;  uncertainty r = 0.000262, k = 64.436692
         5        11     1        0.150801   218606.543164    ;  uncertainty r = 0.000468, k = 28.536492
         6        68     1        0.169893    96778.430298    ;  uncertainty r = 0.000445, k = 164.912754
         7         8     1        0.138893   377813.412402    ;  uncertainty r = 0.000046, k = 3.153951
         7        26     1        0.108851   337367.738574    ;  uncertainty r = 0.000019, k = 1.075802
         8         9     1        0.140096   355985.746924    ;  uncertainty r = 0.000104, k = 4.956895
         8        27     1        0.108654   334945.084082    ;  uncertainty r = 0.000016, k = 0.918782
         9        10     1        0.138975   358378.242090    ;  uncertainty r = 0.000096, k = 2.659753
        10        28     1        0.108599   331422.546289    ;  uncertainty r = 0.000026, k = 1.378669
        11        12     1        0.134382   267409.542480    ;  uncertainty r = 0.000133, k = 50.838041
        11        14     1        0.123664   691557.281836    ;  uncertainty r = 0.000279, k = 18.614523
        12        13     1        0.145909   232997.240576    ;  uncertainty r = 0.000129, k = 17.600458
        12        29     1        0.101723   406385.556152    ;  uncertainty r = 0.000112, k = 5.160830
        13        15     1        0.154157   193072.523779    ;  uncertainty r = 0.000240, k = 6.994810
        13        19     1        0.153518   200159.531299    ;  uncertainty r = 0.000087, k = 7.007687
        13        30     1        0.109363   306145.634521    ;  uncertainty r = 0.000051, k = 2.983860
        15        16     1        0.153461   198493.451978    ;  uncertainty r = 0.000128, k = 5.281574
        15        20     1        0.145732   238691.326465    ;  uncertainty r = 0.000068, k = 15.691022
        15        66     1        0.109360   306494.828955    ;  uncertainty r = 0.000054, k = 3.368977
        16        17     1        0.153721   199006.850024    ;  uncertainty r = 0.000168, k = 6.848027
        16        53     1        0.109526   310433.851465    ;  uncertainty r = 0.000043, k = 0.875064
        16        54     1        0.109526   310433.851465    ;  uncertainty r = 0.000043, k = 0.875064
        17        18     1        0.153975   202217.337109    ;  uncertainty r = 0.000087, k = 2.573046
        17        48     1        0.153156   206143.680444    ;  uncertainty r = 0.000070, k = 12.443492
        17        55     1        0.109633   309151.735352    ;  uncertainty r = 0.000051, k = 6.503762
        18        19     1        0.153317   207892.474463    ;  uncertainty r = 0.000061, k = 5.382321
        18        56     1        0.109602   308125.501074    ;  uncertainty r = 0.000021, k = 1.819146
        18        57     1        0.109602   308125.501074    ;  uncertainty r = 0.000021, k = 1.819146
        19        58     1        0.109620   309930.898096    ;  uncertainty r = 0.000025, k = 1.029525
        19        59     1        0.109620   309930.898096    ;  uncertainty r = 0.000025, k = 1.029525
        20        21     1        0.136254   291452.475586    ;  uncertainty r = 0.000129, k = 17.867731
        20        31     1        0.101616   410581.507520    ;  uncertainty r = 0.000093, k = 3.750123
        21        22     1        0.147883   259563.418848    ;  uncertainty r = 0.000125, k = 27.680344
        21        23     1        0.123538   703630.001367    ;  uncertainty r = 0.000115, k = 12.098945
        22        24     1        0.130310   434161.095312    ;  uncertainty r = 0.000085, k = 15.053236
        22        25     1        0.175563   155788.944214    ;  uncertainty r = 0.000188, k = 10.470577
        24        32     1        0.137602   299978.345996    ;  uncertainty r = 0.000211, k = 8.739575
        25        33     1        0.173396   184345.625244    ;  uncertainty r = 0.000110, k = 8.530767
        32        33     1        0.137286   397473.794482    ;  uncertainty r = 0.000034, k = 9.608965
        32        37     1        0.149948   244144.622949    ;  uncertainty r = 0.000108, k = 7.193396
        33        34     1        0.150719   237383.826465    ;  uncertainty r = 0.000089, k = 11.691948
        34        35     1        0.146397   258698.068359    ;  uncertainty r = 0.000045, k = 12.802743
        34        39     1        0.110180   303656.992139    ;  uncertainty r = 0.000048, k = 3.959665
        34        40     1        0.110180   303656.992139    ;  uncertainty r = 0.000048, k = 3.959665
        35        36     1        0.146774   246527.975830    ;  uncertainty r = 0.000088, k = 8.191406
        35        38     1        0.145874   240551.449512    ;  uncertainty r = 0.000055, k = 4.989744
        36        37     1        0.153862   211171.503149    ;  uncertainty r = 0.000061, k = 10.297044
        36        41     1        0.109933   305388.127246    ;  uncertainty r = 0.000023, k = 3.768152
        36        42     1        0.109933   305388.127246    ;  uncertainty r = 0.000023, k = 3.768152
        37        43     1        0.109729   310887.467139    ;  uncertainty r = 0.000009, k = 2.383701
        37        44     1        0.109729   310887.467139    ;  uncertainty r = 0.000009, k = 2.383701
        38        45     1        0.109858   306972.960254    ;  uncertainty r = 0.000009, k = 1.032628
        38        46     1        0.109858   306972.960254    ;  uncertainty r = 0.000009, k = 1.032628
        38        47     1        0.109858   306972.960254    ;  uncertainty r = 0.000009, k = 1.032628
        48        49     1        0.123614   736987.492969    ;  uncertainty r = 0.000035, k = 11.451192
        48        50     1        0.137582   365085.461719    ;  uncertainty r = 0.000056, k = 20.353979
        50        51     1        0.145904   250764.582275    ;  uncertainty r = 0.000013, k = 6.211512
        50        52     1        0.145904   250764.582275    ;  uncertainty r = 0.000013, k = 6.211512
        51        60     1        0.109437   311080.731982    ;  uncertainty r = 0.000014, k = 1.257584
        51        61     1        0.109437   311080.731982    ;  uncertainty r = 0.000014, k = 1.257584
        51        62     1        0.109437   311080.731982    ;  uncertainty r = 0.000014, k = 1.257584
        52        63     1        0.109437   311080.731982    ;  uncertainty r = 0.000014, k = 1.257584
        52        64     1        0.109437   311080.731982    ;  uncertainty r = 0.000014, k = 1.257584
        52        65     1        0.109437   311080.731982    ;  uncertainty r = 0.000014, k = 1.257584
        68        69     1        0.146865   506596.748535    ;  uncertainty r = 0.000099, k = 12.217969
        68        70     1        0.146865   506596.748535    ;  uncertainty r = 0.000099, k = 12.217969

[ angles ]
;       ai        aj        ak funct           theta             cth
         1         3         4     1      119.830605      505.973835    ;  uncertainty theta = 0.005452, k = 0.428272
         1         3         7     1      119.314194      360.211621    ;  uncertainty theta = 0.006130, k = 0.343813
         1        10         9     1      118.485802      468.937844    ;  uncertainty theta = 0.004540, k = 0.198550
         1        10        28     1      120.284622      262.836900    ;  uncertainty theta = 0.003437, k = 0.194975
         1        68         6     1      103.012146      705.942616    ;  uncertainty theta = 0.009542, k = 0.303092
         1        68        69     1      114.052650      568.822129    ;  uncertainty theta = 0.006722, k = 0.192398
         1        68        70     1      114.052650      568.822129    ;  uncertainty theta = 0.006722, k = 0.192398
         2         9         8     1      120.403847      451.930576    ;  uncertainty theta = 0.000875, k = 0.070483
         2         9        10     1      119.872314      427.150642    ;  uncertainty theta = 0.001118, k = 0.055453
         3         1        10     1      122.554794      421.819483    ;  uncertainty theta = 0.007409, k = 0.170680
         3         1        68     1      118.241394      412.793040    ;  uncertainty theta = 0.008730, k = 0.350267
         3         4         5     1      119.614929      435.732611    ;  uncertainty theta = 0.013271, k = 0.111187
         3         4        67     1      115.257248      330.102954    ;  uncertainty theta = 0.008785, k = 0.279803
         3         7         8     1      119.450783      495.364762    ;  uncertainty theta = 0.001899, k = 0.165814
         3         7        26     1      118.798035      281.276512    ;  uncertainty theta = 0.000774, k = 0.072402
         4         3         7     1      121.509354      552.339904    ;  uncertainty theta = 0.005410, k = 0.223143
         4         5         6     1      128.458557      782.718084    ;  uncertainty theta = 0.010375, k = 0.343467
         4         5        11     1      113.280724      435.199077    ;  uncertainty theta = 0.013417, k = 0.677346
         5         4        67     1      117.479233      353.083927    ;  uncertainty theta = 0.007895, k = 0.347877
         5         6        68     1      122.598717      460.303428    ;  uncertainty theta = 0.015672, k = 0.268435
         5        11        12     1      111.965515      409.273292    ;  uncertainty theta = 0.005927, k = 0.267193
         5        11        14     1      119.654434      457.375598    ;  uncertainty theta = 0.007268, k = 0.236456
         6         5        11     1      118.579025      428.691966    ;  uncertainty theta = 0.016633, k = 0.514333
         6        68        69     1      112.266800      668.565290    ;  uncertainty theta = 0.005470, k = 0.205174
         6        68        70     1      112.266800      668.565290    ;  uncertainty theta = 0.005470, k = 0.205174
         7         8         9     1      119.561951      511.938154    ;  uncertainty theta = 0.002452, k = 0.031696
         7         8        27     1      120.074966      283.032380    ;  uncertainty theta = 0.001391, k = 0.070289
         8         7        26     1      120.561256      288.688052    ;  uncertainty theta = 0.001573, k = 0.106460
         8         9        10     1      121.161118      394.548595    ;  uncertainty theta = 0.002587, k = 0.148340
         9         8        27     1      120.748276      285.934896    ;  uncertainty theta = 0.001345, k = 0.057007
         9        10        28     1      121.934982      277.658095    ;  uncertainty theta = 0.003118, k = 0.106781
        10         1        68     1      119.503983      336.219092    ;  uncertainty theta = 0.011609, k = 0.158769
        11        12        13     1      115.070335      454.553971    ;  uncertainty theta = 0.006628, k = 0.278757
        11        12        29     1      115.906395      368.412513    ;  uncertainty theta = 0.006768, k = 0.219904
        12        11        14     1      125.587662      830.180271    ;  uncertainty theta = 0.005641, k = 0.118526
        12        13        15     1      108.789284      587.171691    ;  uncertainty theta = 0.004938, k = 0.138248
        12        13        19     1      110.443665      634.189723    ;  uncertainty theta = 0.002444, k = 0.092354
        12        13        30     1      105.070724      443.254151    ;  uncertainty theta = 0.004608, k = 0.198897
        13        12        29     1      112.916931      310.152375    ;  uncertainty theta = 0.002015, k = 0.323686
        13        15        16     1      109.646095      543.750434    ;  uncertainty theta = 0.003239, k = 0.181781
        13        15        20     1      109.149155      584.498020    ;  uncertainty theta = 0.004760, k = 0.176170
        13        15        66     1      107.705795      384.011409    ;  uncertainty theta = 0.001723, k = 0.083201
        13        19        18     1      109.765236      550.378590    ;  uncertainty theta = 0.003371, k = 0.120064
        13        19        58     1      107.475204      382.876955    ;  uncertainty theta = 0.000908, k = 0.035499
        13        19        59     1      107.475204      382.876955    ;  uncertainty theta = 0.000908, k = 0.035499
        15        13        19     1      109.393898      551.705818    ;  uncertainty theta = 0.001051, k = 0.237198
        15        13        30     1      107.486679      381.927837    ;  uncertainty theta = 0.002520, k = 0.088171
        15        16        17     1      110.158470      537.237002    ;  uncertainty theta = 0.003364, k = 0.118913
        15        16        53     1      107.462036      385.087415    ;  uncertainty theta = 0.000668, k = 0.059043
        15        16        54     1      107.462036      385.087415    ;  uncertainty theta = 0.000668, k = 0.059043
        15        20        21     1      116.259842      438.599854    ;  uncertainty theta = 0.006695, k = 0.183209
        15        20        31     1      112.698265      315.764027    ;  uncertainty theta = 0.001508, k = 0.296876
        16        15        20     1      110.222816      630.153200    ;  uncertainty theta = 0.002135, k = 0.087453
        16        15        66     1      108.603882      408.571724    ;  uncertainty theta = 0.001775, k = 0.034676
        16        17        18     1      109.900391      583.567575    ;  uncertainty theta = 0.002330, k = 0.083135
        16        17        48     1      108.569168      489.144113    ;  uncertainty theta = 0.003757, k = 0.073146
        16        17        55     1      107.332260      401.082169    ;  uncertainty theta = 0.002516, k = 0.077903
        17        16        53     1      108.676857      396.198101    ;  uncertainty theta = 0.000795, k = 0.026396
        17        16        54     1      108.676857      396.198101    ;  uncertainty theta = 0.000795, k = 0.026396
        17        18        19     1      109.789757      580.826741    ;  uncertainty theta = 0.001891, k = 0.142184
        17        18        56     1      108.292625      386.614311    ;  uncertainty theta = 0.000735, k = 0.019139
        17        18        57     1      108.292625      386.614311    ;  uncertainty theta = 0.000735, k = 0.019139
        17        48        49     1      123.648819      547.647652    ;  uncertainty theta = 0.003749, k = 0.250532
        17        48        50     1      114.135170      399.306701    ;  uncertainty theta = 0.002339, k = 0.216014
        18        17        48     1      108.943726      496.415422    ;  uncertainty theta = 0.001979, k = 0.055108
        18        17        55     1      107.694107      403.879791    ;  uncertainty theta = 0.001685, k = 0.082263
        18        19        58     1      108.762428      400.566224    ;  uncertainty theta = 0.001510, k = 0.036687
        18        19        59     1      108.762428      400.566224    ;  uncertainty theta = 0.001510, k = 0.036687
        19        13        30     1      108.928024      410.669247    ;  uncertainty theta = 0.001520, k = 0.067204
        19        18        56     1      108.482193      402.788750    ;  uncertainty theta = 0.000884, k = 0.036541
        19        18        57     1      108.482193      402.788750    ;  uncertainty theta = 0.000884, k = 0.036541
        20        15        66     1      105.245773      446.491842    ;  uncertainty theta = 0.004278, k = 0.178016
        20        21        22     1      113.070839      435.784547    ;  uncertainty theta = 0.006920, k = 0.140238
        20        21        23     1      124.950012      804.911939    ;  uncertainty theta = 0.003994, k = 0.055585
        21        20        31     1      116.250000      347.593576    ;  uncertainty theta = 0.004441, k = 0.081627
        21        22        24     1      122.197128      370.860213    ;  uncertainty theta = 0.005964, k = 0.255742
        21        22        25     1      118.123451      287.405674    ;  uncertainty theta = 0.005808, k = 0.204925
        22        21        23     1      120.002197      453.227350    ;  uncertainty theta = 0.007890, k = 0.121396
        22        24        32     1      111.845421      637.059456    ;  uncertainty theta = 0.004719, k = 0.108197
        22        25        33     1       89.170425     1132.634133    ;  uncertainty theta = 0.004755, k = 0.314956
        24        22        25     1      116.136452      646.965173    ;  uncertainty theta = 0.002239, k = 0.246117
        24        32        33     1      115.716957      690.992937    ;  uncertainty theta = 0.003156, k = 0.158093
        24        32        37     1      124.040390      433.932787    ;  uncertainty theta = 0.004363, k = 0.201750
        25        33        32     1      109.672325      507.238336    ;  uncertainty theta = 0.002750, k = 0.124654
        25        33        34     1      124.458923      318.004972    ;  uncertainty theta = 0.003631, k = 0.249957
        32        33        34     1      122.449425      322.713122    ;  uncertainty theta = 0.004108, k = 0.373686
        32        37        36     1      106.939438      596.797522    ;  uncertainty theta = 0.003584, k = 0.044131
        32        37        43     1      108.548073      392.911220    ;  uncertainty theta = 0.001454, k = 0.086868
        32        37        44     1      108.548073      392.911220    ;  uncertainty theta = 0.001454, k = 0.086868
        33        32        37     1      120.498146      325.489963    ;  uncertainty theta = 0.004995, k = 0.174544
        33        34        35     1      109.701111      686.046080    ;  uncertainty theta = 0.001850, k = 0.201796
        33        34        39     1      108.925659      409.463193    ;  uncertainty theta = 0.001395, k = 0.154098
        33        34        40     1      108.925659      409.463193    ;  uncertainty theta = 0.001395, k = 0.154098
        34        35        36     1      108.084244      491.834927    ;  uncertainty theta = 0.003315, k = 0.091086
        34        35        38     1      107.580322      510.743273    ;  uncertainty theta = 0.002764, k = 0.057722
        35        34        39     1      109.358154      448.409487    ;  uncertainty theta = 0.001850, k = 0.074310
        35        34        40     1      109.358154      448.409487    ;  uncertainty theta = 0.001850, k = 0.074310
        35        36        37     1      112.487526      700.788206    ;  uncertainty theta = 0.002677, k = 0.118016
        35        36        41     1      108.920166      453.721493    ;  uncertainty theta = 0.001526, k = 0.064884
        35        36        42     1      108.920166      453.721493    ;  uncertainty theta = 0.001526, k = 0.064884
        35        38        45     1      110.438461      450.024231    ;  uncertainty theta = 0.001821, k = 0.029766
        35        38        46     1      110.438461      450.024231    ;  uncertainty theta = 0.001821, k = 0.029766
        35        38        47     1      110.438461      450.024231    ;  uncertainty theta = 0.001821, k = 0.029766
        36        35        38     1      108.245483      523.945384    ;  uncertainty theta = 0.002945, k = 0.105030
        36        37        43     1      108.704140      394.566535    ;  uncertainty theta = 0.001154, k = 0.056791
        36        37        44     1      108.704140      394.566535    ;  uncertainty theta = 0.001154, k = 0.056791
        37        36        41     1      108.660522      413.983038    ;  uncertainty theta = 0.001451, k = 0.079858
        37        36        42     1      108.660522      413.983038    ;  uncertainty theta = 0.001451, k = 0.079858
        39        34        40     1      104.710770      316.430897    ;  uncertainty theta = 0.002647, k = 0.058044
        41        36        42     1      105.686386      320.062785    ;  uncertainty theta = 0.001993, k = 0.069558
        43        37        44     1      105.018166      307.701164    ;  uncertainty theta = 0.001306, k = 0.028790
        45        38        46     1      106.707680      321.292396    ;  uncertainty theta = 0.002211, k = 0.028957
        45        38        47     1      106.707680      321.292396    ;  uncertainty theta = 0.002211, k = 0.028957
        46        38        47     1      106.707680      321.292396    ;  uncertainty theta = 0.002211, k = 0.028957
        48        17        55     1      106.313622      362.200292    ;  uncertainty theta = 0.002423, k = 0.146630
        48        50        51     1      116.622971      385.561065    ;  uncertainty theta = 0.001770, k = 0.124804
        48        50        52     1      116.622971      385.561065    ;  uncertainty theta = 0.001770, k = 0.124804
        49        48        50     1      123.396584      724.695474    ;  uncertainty theta = 0.001503, k = 0.174408
        50        51        60     1      109.352982      479.364486    ;  uncertainty theta = 0.001224, k = 0.042687
        50        51        61     1      109.352982      479.364486    ;  uncertainty theta = 0.001224, k = 0.042687
        50        51        62     1      109.352982      479.364486    ;  uncertainty theta = 0.001224, k = 0.042687
        50        52        63     1      109.352982      479.364486    ;  uncertainty theta = 0.001224, k = 0.042687
        50        52        64     1      109.352982      479.364486    ;  uncertainty theta = 0.001224, k = 0.042687
        50        52        65     1      109.352982      479.364486    ;  uncertainty theta = 0.001224, k = 0.042687
        51        50        52     1      118.428368      428.731644    ;  uncertainty theta = 0.003391, k = 0.223109
        53        16        54     1      105.326035      326.596294    ;  uncertainty theta = 0.002223, k = 0.051835
        56        18        57     1      104.655197      318.642921    ;  uncertainty theta = 0.002537, k = 0.034949
        58        19        59     1      105.087135      316.700154    ;  uncertainty theta = 0.002326, k = 0.045638
        60        51        61     1      106.824196      329.099123    ;  uncertainty theta = 0.001131, k = 0.027019
        60        51        62     1      106.824196      329.099123    ;  uncertainty theta = 0.001131, k = 0.027019
        61        51        62     1      106.824196      329.099123    ;  uncertainty theta = 0.001131, k = 0.027019
        63        52        64     1      106.824196      329.099123    ;  uncertainty theta = 0.001131, k = 0.027019
        63        52        65     1      106.824196      329.099123    ;  uncertainty theta = 0.001131, k = 0.027019
        64        52        65     1      106.824196      329.099123    ;  uncertainty theta = 0.001131, k = 0.027019
        69        68        70     1      124.290894      838.126270    ;  uncertainty theta = 0.007010, k = 0.068967

[ dihedrals ] ; propers for gromacs 4.5 or higher, use funct 9
;       ai        aj        ak        al funct           phase               k        pn
         1         3         4         5     9        0.000000        0.701822         1    ;  uncertainty k = 1.569259
         1         3         4         5     9      180.000000        3.043921         2    ;  uncertainty k = 1.429651
         1         3         4         5     9        0.000000       -0.024328         3    ;  uncertainty k = 0.490567
         1         3         4         5     9      180.000000        0.046405         4    ;  uncertainty k = 0.214952
         1         3         4        67     9        0.000000        5.525711         1    ;  uncertainty k = 1.240025
         1         3         4        67     9      180.000000        3.373968         2    ;  uncertainty k = 0.979503
         1         3         4        67     9        0.000000        0.550997         3    ;  uncertainty k = 0.385999
         1         3         4        67     9      180.000000        0.256491         4    ;  uncertainty k = 0.185421
         1         3         7         8     9        0.000000       -0.024027         1    ;  uncertainty k = 0.369891
         1         3         7         8     9      180.000000        8.684218         2    ;  uncertainty k = 0.775764
         1         3         7         8     9        0.000000        0.088414         3    ;  uncertainty k = 0.297415
         1         3         7         8     9      180.000000        1.181888         4    ;  uncertainty k = 0.338322
         1         3         7        26     9        0.000000        0.066052         1    ;  uncertainty k = 0.398290
         1         3         7        26     9      180.000000        6.639909         2    ;  uncertainty k = 0.837719
         1         3         7        26     9        0.000000        1.200760         3    ;  uncertainty k = 0.193876
         1         3         7        26     9      180.000000        1.312066         4    ;  uncertainty k = 0.171967
         1        10         9         2     9        0.000000        0.018587         1    ;  uncertainty k = 0.239656
         1        10         9         2     9      180.000000       10.153440         2    ;  uncertainty k = 0.482240
         1        10         9         2     9        0.000000        1.185828         3    ;  uncertainty k = 0.400958
         1        10         9         2     9      180.000000        1.543004         4    ;  uncertainty k = 0.142292
         1        10         9         8     9        0.000000        0.063153         1    ;  uncertainty k = 0.399043
         1        10         9         8     9      180.000000        8.979978         2    ;  uncertainty k = 0.523431
         1        10         9         8     9        0.000000        0.118468         3    ;  uncertainty k = 0.477237
         1        10         9         8     9      180.000000        1.262999         4    ;  uncertainty k = 0.374906
         1        68         6         5     9        0.000000       -0.838242         1    ;  uncertainty k = 2.593382
         1        68         6         5     9      180.000000       -1.169778         2    ;  uncertainty k = 1.682781
         1        68         6         5     9        0.000000       -1.027734         3    ;  uncertainty k = 1.382869
         1        68         6         5     9      180.000000        0.569307         4    ;  uncertainty k = 0.250612
         2         9         8         7     9        0.000000        0.202677         1    ;  uncertainty k = 0.206861
         2         9         8         7     9      180.000000        8.940547         2    ;  uncertainty k = 0.662516
         2         9         8         7     9        0.000000        1.500017         3    ;  uncertainty k = 0.477978
         2         9         8         7     9      180.000000        1.690561         4    ;  uncertainty k = 0.160152
         2         9         8        27     9        0.000000       -0.151155         1    ;  uncertainty k = 0.229871
         2         9         8        27     9      180.000000        7.390393         2    ;  uncertainty k = 0.254044
         2         9         8        27     9        0.000000        0.634252         3    ;  uncertainty k = 0.285321
         2         9         8        27     9      180.000000        0.963429         4    ;  uncertainty k = 0.141308
         2         9        10        28     9        0.000000       -0.148468         1    ;  uncertainty k = 0.459385
         2         9        10        28     9      180.000000        7.806384         2    ;  uncertainty k = 0.271536
         2         9        10        28     9        0.000000        0.796984         3    ;  uncertainty k = 0.211645
         2         9        10        28     9      180.000000        1.098813         4    ;  uncertainty k = 0.226614
         3         1        10         9     9        0.000000        0.074811         1    ;  uncertainty k = 0.319778
         3         1        10         9     9      180.000000       11.494127         2    ;  uncertainty k = 0.518590
         3         1        10         9     9        0.000000       -0.587610         3    ;  uncertainty k = 0.220368
         3         1        10         9     9      180.000000        1.097230         4    ;  uncertainty k = 0.187675
         3         1        10        28     9        0.000000        0.033734         1    ;  uncertainty k = 0.525654
         3         1        10        28     9      180.000000        7.084812         2    ;  uncertainty k = 0.835464
         3         1        10        28     9        0.000000        1.162682         3    ;  uncertainty k = 0.209737
         3         1        10        28     9      180.000000        1.582773         4    ;  uncertainty k = 0.055869
         3         1        68         6     9        0.000000       -7.501288         1    ;  uncertainty k = 2.275496
         3         1        68         6     9      180.000000        0.081440         2    ;  uncertainty k = 0.712416
         3         1        68         6     9        0.000000        0.573127         3    ;  uncertainty k = 0.488608
         3         1        68         6     9      180.000000        0.234573         4    ;  uncertainty k = 0.288961
         3         1        68        69     9        0.000000       -3.167763         1    ;  uncertainty k = 1.659477
         3         1        68        69     9      180.000000        0.373862         2    ;  uncertainty k = 0.280317
         3         1        68        69     9        0.000000        0.752613         3    ;  uncertainty k = 0.375733
         3         1        68        69     9      180.000000        0.212617         4    ;  uncertainty k = 0.125377
         3         1        68        70     9        0.000000       -3.167763         1    ;  uncertainty k = 1.659477
         3         1        68        70     9      180.000000        0.373862         2    ;  uncertainty k = 0.280317
         3         1        68        70     9        0.000000        0.752613         3    ;  uncertainty k = 0.375733
         3         1        68        70     9      180.000000        0.212617         4    ;  uncertainty k = 0.125377
         3         4         5         6     9        0.000000        3.580648         1    ;  uncertainty k = 4.260219
         3         4         5         6     9      180.000000       11.890508         2    ;  uncertainty k = 0.382097
         3         4         5         6     9        0.000000        0.002072         3    ;  uncertainty k = 0.791330
         3         4         5         6     9      180.000000       -0.194084         4    ;  uncertainty k = 0.458777
         3         4         5        11     9        0.000000        4.538656         1    ;  uncertainty k = 3.224955
         3         4         5        11     9      180.000000        7.015865         2    ;  uncertainty k = 0.867970
         3         4         5        11     9        0.000000        1.073980         3    ;  uncertainty k = 0.525036
         3         4         5        11     9      180.000000       -0.137676         4    ;  uncertainty k = 0.443389
         3         7         8         9     9        0.000000        0.033970         1    ;  uncertainty k = 0.200808
         3         7         8         9     9      180.000000       14.376166         2    ;  uncertainty k = 0.158879
         3         7         8         9     9        0.000000       -0.358460         3    ;  uncertainty k = 0.446068
         3         7         8         9     9      180.000000        1.024374         4    ;  uncertainty k = 0.251974
         3         7         8        27     9        0.000000        0.195985         1    ;  uncertainty k = 0.273103
         3         7         8        27     9      180.000000        8.688146         2    ;  uncertainty k = 0.540952
         3         7         8        27     9        0.000000        1.376049         3    ;  uncertainty k = 0.226231
         3         7         8        27     9      180.000000        1.692546         4    ;  uncertainty k = 0.216309
         4         3         1        10     9        0.000000        0.239162         1    ;  uncertainty k = 0.314443
         4         3         1        10     9      180.000000        8.359837         2    ;  uncertainty k = 0.232626
         4         3         1        10     9        0.000000        0.939412         3    ;  uncertainty k = 0.108967
         4         3         1        10     9      180.000000        1.390458         4    ;  uncertainty k = 0.185576
         4         3         1        68     9        0.000000        0.113529         1    ;  uncertainty k = 1.523127
         4         3         1        68     9      180.000000        9.353723         2    ;  uncertainty k = 0.959484
         4         3         1        68     9        0.000000        0.778601         3    ;  uncertainty k = 0.065104
         4         3         1        68     9      180.000000        1.079926         4    ;  uncertainty k = 0.276704
         4         3         7         8     9        0.000000        0.073492         1    ;  uncertainty k = 0.303226
         4         3         7         8     9      180.000000       12.157443         2    ;  uncertainty k = 0.166035
         4         3         7         8     9        0.000000        1.007372         3    ;  uncertainty k = 0.229462
         4         3         7         8     9      180.000000        1.367429         4    ;  uncertainty k = 0.163202
         4         3         7        26     9        0.000000       -0.442642         1    ;  uncertainty k = 0.406518
         4         3         7        26     9      180.000000        8.460813         2    ;  uncertainty k = 0.222884
         4         3         7        26     9        0.000000        0.989011         3    ;  uncertainty k = 0.203580
         4         3         7        26     9      180.000000        1.259453         4    ;  uncertainty k = 0.263271
         4         5         6        68     9        0.000000        1.055268         1    ;  uncertainty k = 3.167003
         4         5         6        68     9      180.000000       21.179361         2    ;  uncertainty k = 0.870889
         4         5         6        68     9        0.000000        0.748990         3    ;  uncertainty k = 1.262534
         4         5         6        68     9      180.000000        0.183362         4    ;  uncertainty k = 0.783691
         4         5        11        12     9        0.000000        4.533652         1    ;  uncertainty k = 3.214616
         4         5        11        12     9      180.000000        2.189859         2    ;  uncertainty k = 0.783825
         4         5        11        12     9        0.000000        0.921892         3    ;  uncertainty k = 0.321725
         4         5        11        12     9      180.000000        0.108607         4    ;  uncertainty k = 0.153590
         4         5        11        14     9        0.000000       -1.485141         1    ;  uncertainty k = 2.229478
         4         5        11        14     9      180.000000        2.559251         2    ;  uncertainty k = 0.693102
         4         5        11        14     9        0.000000        0.387303         3    ;  uncertainty k = 0.133206
         4         5        11        14     9      180.000000        0.283610         4    ;  uncertainty k = 0.157927
         5         4         3         7     9        0.000000        0.798915         1    ;  uncertainty k = 0.919547
         5         4         3         7     9      180.000000        2.915671         2    ;  uncertainty k = 1.290186
         5         4         3         7     9        0.000000        0.405105         3    ;  uncertainty k = 0.155543
         5         4         3         7     9      180.000000        0.192259         4    ;  uncertainty k = 0.182141
         5         6        68        69     9        0.000000        2.289297         1    ;  uncertainty k = 5.060854
         5         6        68        69     9      180.000000       -0.100606         2    ;  uncertainty k = 1.322387
         5         6        68        69     9        0.000000        0.599240         3    ;  uncertainty k = 0.484906
         5         6        68        69     9      180.000000        0.058485         4    ;  uncertainty k = 0.393983
         5         6        68        70     9        0.000000        2.289297         1    ;  uncertainty k = 5.060854
         5         6        68        70     9      180.000000       -0.100606         2    ;  uncertainty k = 1.322387
         5         6        68        70     9        0.000000        0.599240         3    ;  uncertainty k = 0.484906
         5         6        68        70     9      180.000000        0.058485         4    ;  uncertainty k = 0.393983
         5        11        12        13     9        0.000000        3.787881         1    ;  uncertainty k = 1.412792
         5        11        12        13     9      180.000000       12.373286         2    ;  uncertainty k = 0.229335
         5        11        12        13     9        0.000000        1.674288         3    ;  uncertainty k = 0.244178
         5        11        12        13     9      180.000000       -1.115535         4    ;  uncertainty k = 0.363499
         5        11        12        29     9        0.000000        1.127930         1    ;  uncertainty k = 1.518102
         5        11        12        29     9      180.000000        6.451272         2    ;  uncertainty k = 1.501322
         5        11        12        29     9        0.000000        2.026373         3    ;  uncertainty k = 0.602272
         5        11        12        29     9      180.000000        0.074845         4    ;  uncertainty k = 0.592916
         6         5         4        67     9        0.000000       13.221162         1    ;  uncertainty k = 1.085118
         6         5         4        67     9      180.000000       11.281456         2    ;  uncertainty k = 1.017914
         6         5         4        67     9        0.000000        0.037003         3    ;  uncertainty k = 1.325664
         6         5         4        67     9      180.000000       -0.131570         4    ;  uncertainty k = 0.550641
         6         5        11        12     9        0.000000        3.826291         1    ;  uncertainty k = 3.222232
         6         5        11        12     9      180.000000        1.204735         2    ;  uncertainty k = 0.472734
         6         5        11        12     9        0.000000        0.617557         3    ;  uncertainty k = 0.556913
         6         5        11        12     9      180.000000        0.086413         4    ;  uncertainty k = 0.154911
         6         5        11        14     9        0.000000       -6.534332         1    ;  uncertainty k = 2.180594
         6         5        11        14     9      180.000000        2.273634         2    ;  uncertainty k = 0.874312
         6         5        11        14     9        0.000000       -0.204102         3    ;  uncertainty k = 0.593400
         6         5        11        14     9      180.000000       -0.165267         4    ;  uncertainty k = 0.190736
         6        68         1        10     9        0.000000       -3.216880         1    ;  uncertainty k = 3.279152
         6        68         1        10     9      180.000000        0.209600         2    ;  uncertainty k = 0.400609
         6        68         1        10     9        0.000000       -0.310086         3    ;  uncertainty k = 0.152216
         6        68         1        10     9      180.000000        0.327640         4    ;  uncertainty k = 0.213183
         7         3         1        10     9        0.000000       -0.358522         1    ;  uncertainty k = 0.501292
         7         3         1        10     9      180.000000        6.688945         2    ;  uncertainty k = 1.394256
         7         3         1        10     9        0.000000        0.154697         3    ;  uncertainty k = 0.304367
         7         3         1        10     9      180.000000        1.185797         4    ;  uncertainty k = 0.317660
         7         3         1        68     9        0.000000        0.375150         1    ;  uncertainty k = 0.735417
         7         3         1        68     9      180.000000        6.117631         2    ;  uncertainty k = 0.839799
         7         3         1        68     9        0.000000        1.114560         3    ;  uncertainty k = 0.299981
         7         3         1        68     9      180.000000        1.462380         4    ;  uncertainty k = 0.206852
         7         3         4        67     9        0.000000        1.437415         1    ;  uncertainty k = 0.461386
         7         3         4        67     9      180.000000        3.042871         2    ;  uncertainty k = 0.610117
         7         3         4        67     9        0.000000        0.770157         3    ;  uncertainty k = 0.182721
         7         3         4        67     9      180.000000        0.180180         4    ;  uncertainty k = 0.132545
         7         8         9        10     9        0.000000       -0.010720         1    ;  uncertainty k = 0.190009
         7         8         9        10     9      180.000000        9.515578         2    ;  uncertainty k = 0.519393
         7         8         9        10     9        0.000000       -0.199229         3    ;  uncertainty k = 0.413327
         7         8         9        10     9      180.000000        1.151516         4    ;  uncertainty k = 0.291490
         8         9        10        28     9        0.000000       -0.009390         1    ;  uncertainty k = 0.266799
         8         9        10        28     9      180.000000        6.246791         2    ;  uncertainty k = 0.485762
         8         9        10        28     9        0.000000        1.384903         3    ;  uncertainty k = 0.320399
         8         9        10        28     9      180.000000        1.611271         4    ;  uncertainty k = 0.108385
         9         8         7        26     9        0.000000        0.027258         1    ;  uncertainty k = 0.192530
         9         8         7        26     9      180.000000        8.617444         2    ;  uncertainty k = 0.325981
         9         8         7        26     9        0.000000        1.486577         3    ;  uncertainty k = 0.225840
         9         8         7        26     9      180.000000        1.951770         4    ;  uncertainty k = 0.209691
         9        10         1        68     9        0.000000        0.199077         1    ;  uncertainty k = 0.417887
         9        10         1        68     9      180.000000        9.568515         2    ;  uncertainty k = 0.771849
         9        10         1        68     9        0.000000        1.631526         3    ;  uncertainty k = 0.400176
         9        10         1        68     9      180.000000        1.817605         4    ;  uncertainty k = 0.366769
        10         1        68        69     9        0.000000        0.126677         1    ;  uncertainty k = 1.899018
        10         1        68        69     9      180.000000        0.938745         2    ;  uncertainty k = 0.269369
        10         1        68        69     9        0.000000       -0.174822         3    ;  uncertainty k = 0.062746
        10         1        68        69     9      180.000000        0.194261         4    ;  uncertainty k = 0.139720
        10         1        68        70     9        0.000000        0.126677         1    ;  uncertainty k = 1.899018
        10         1        68        70     9      180.000000        0.938745         2    ;  uncertainty k = 0.269369
        10         1        68        70     9        0.000000       -0.174822         3    ;  uncertainty k = 0.062746
        10         1        68        70     9      180.000000        0.194261         4    ;  uncertainty k = 0.139720
        10         9         8        27     9        0.000000       -0.063664         1    ;  uncertainty k = 0.239569
        10         9         8        27     9      180.000000        5.863837         2    ;  uncertainty k = 0.547273
        10         9         8        27     9        0.000000        1.297239         3    ;  uncertainty k = 0.258781
        10         9         8        27     9      180.000000        1.455128         4    ;  uncertainty k = 0.206851
        11         5         4        67     9        0.000000        2.832202         1    ;  uncertainty k = 2.651322
        11         5         4        67     9      180.000000        5.456751         2    ;  uncertainty k = 1.254605
        11         5         4        67     9        0.000000        0.814402         3    ;  uncertainty k = 0.808657
        11         5         4        67     9      180.000000       -0.188179         4    ;  uncertainty k = 0.384439
        11         5         6        68     9        0.000000        7.211732         1    ;  uncertainty k = 2.569480
        11         5         6        68     9      180.000000       20.819733         2    ;  uncertainty k = 0.755526
        11         5         6        68     9        0.000000        1.515999         3    ;  uncertainty k = 1.079127
        11         5         6        68     9      180.000000       -0.718086         4    ;  uncertainty k = 1.684368
        11        12        13        15     9        0.000000        1.005827         1    ;  uncertainty k = 0.981483
        11        12        13        15     9      180.000000        0.347353         2    ;  uncertainty k = 0.313374
        11        12        13        15     9        0.000000       -0.078810         3    ;  uncertainty k = 0.213311
        11        12        13        15     9      180.000000        0.475724         4    ;  uncertainty k = 0.252854
        11        12        13        19     9        0.000000        0.665119         1    ;  uncertainty k = 0.762418
        11        12        13        19     9      180.000000        0.432366         2    ;  uncertainty k = 0.242881
        11        12        13        19     9        0.000000        0.109008         3    ;  uncertainty k = 0.143256
        11        12        13        19     9      180.000000        0.401990         4    ;  uncertainty k = 0.107016
        11        12        13        30     9        0.000000        1.370482         1    ;  uncertainty k = 0.638164
        11        12        13        30     9      180.000000       -0.521597         2    ;  uncertainty k = 0.245043
        11        12        13        30     9        0.000000       -0.012475         3    ;  uncertainty k = 0.144194
        11        12        13        30     9      180.000000        0.236750         4    ;  uncertainty k = 0.042732
        12        13        15        16     9        0.000000       -2.705087         1    ;  uncertainty k = 0.785636
        12        13        15        16     9      180.000000       -0.465563         2    ;  uncertainty k = 0.298967
        12        13        15        16     9        0.000000        0.550108         3    ;  uncertainty k = 0.196732
        12        13        15        16     9      180.000000       -0.041120         4    ;  uncertainty k = 0.097959
        12        13        15        20     9        0.000000        0.464845         1    ;  uncertainty k = 0.805687
        12        13        15        20     9      180.000000       -1.242365         2    ;  uncertainty k = 0.769700
        12        13        15        20     9        0.000000        0.375521         3    ;  uncertainty k = 0.381004
        12        13        15        20     9      180.000000       -0.001172         4    ;  uncertainty k = 0.451580
        12        13        15        66     9        0.000000        0.074615         1    ;  uncertainty k = 1.093629
        12        13        15        66     9      180.000000       -1.460861         2    ;  uncertainty k = 0.461183
        12        13        15        66     9        0.000000        0.491518         3    ;  uncertainty k = 0.248300
        12        13        15        66     9      180.000000       -0.286907         4    ;  uncertainty k = 0.131692
        12        13        19        18     9        0.000000       -4.131760         1    ;  uncertainty k = 0.673736
        12        13        19        18     9      180.000000        0.137478         2    ;  uncertainty k = 0.125171
        12        13        19        18     9        0.000000        0.842078         3    ;  uncertainty k = 0.066203
        12        13        19        18     9      180.000000       -0.153252         4    ;  uncertainty k = 0.108994
        12        13        19        58     9        0.000000       -0.316506         1    ;  uncertainty k = 0.603454
        12        13        19        58     9      180.000000       -1.476116         2    ;  uncertainty k = 0.328067
        12        13        19        58     9        0.000000        0.926529         3    ;  uncertainty k = 0.117980
        12        13        19        58     9      180.000000       -0.294986         4    ;  uncertainty k = 0.079986
        12        13        19        59     9        0.000000       -0.316506         1    ;  uncertainty k = 0.603454
        12        13        19        59     9      180.000000       -1.476116         2    ;  uncertainty k = 0.328067
        12        13        19        59     9        0.000000        0.926529         3    ;  uncertainty k = 0.117980
        12        13        19        59     9      180.000000       -0.294986         4    ;  uncertainty k = 0.079986
        13        12        11        14     9        0.000000        5.037431         1    ;  uncertainty k = 1.088851
        13        12        11        14     9      180.000000       16.138158         2    ;  uncertainty k = 0.223820
        13        12        11        14     9        0.000000        0.104043         3    ;  uncertainty k = 0.283550
        13        12        11        14     9      180.000000       -0.725952         4    ;  uncertainty k = 0.182645
        13        15        16        17     9        0.000000       -1.416934         1    ;  uncertainty k = 2.691610
        13        15        16        17     9      180.000000       -1.375980         2    ;  uncertainty k = 1.265877
        13        15        16        17     9        0.000000        0.518001         3    ;  uncertainty k = 0.500607
        13        15        16        17     9      180.000000       -1.215392         4    ;  uncertainty k = 0.209044
        13        15        16        53     9        0.000000       -0.879411         1    ;  uncertainty k = 0.500861
        13        15        16        53     9      180.000000       -0.613212         2    ;  uncertainty k = 0.181404
        13        15        16        53     9        0.000000        0.124720         3    ;  uncertainty k = 0.062717
        13        15        16        53     9      180.000000       -0.136055         4    ;  uncertainty k = 0.112997
        13        15        16        54     9        0.000000       -0.879411         1    ;  uncertainty k = 0.500861
        13        15        16        54     9      180.000000       -0.613212         2    ;  uncertainty k = 0.181404
        13        15        16        54     9        0.000000        0.124720         3    ;  uncertainty k = 0.062717
        13        15        16        54     9      180.000000       -0.136055         4    ;  uncertainty k = 0.112997
        13        15        20        21     9        0.000000        0.797971         1    ;  uncertainty k = 0.621948
        13        15        20        21     9      180.000000        0.228457         2    ;  uncertainty k = 0.182368
        13        15        20        21     9        0.000000       -0.090371         3    ;  uncertainty k = 0.112257
        13        15        20        21     9      180.000000        0.458088         4    ;  uncertainty k = 0.208546
        13        15        20        31     9        0.000000        2.670742         1    ;  uncertainty k = 0.604108
        13        15        20        31     9      180.000000       -1.568719         2    ;  uncertainty k = 0.399029
        13        15        20        31     9        0.000000        0.520416         3    ;  uncertainty k = 0.252232
        13        15        20        31     9      180.000000        0.166447         4    ;  uncertainty k = 0.145337
        13        19        18        17     9        0.000000       -5.581129         1    ;  uncertainty k = 0.756725
        13        19        18        17     9      180.000000       -1.076591         2    ;  uncertainty k = 0.646762
        13        19        18        17     9        0.000000        1.423200         3    ;  uncertainty k = 0.144246
        13        19        18        17     9      180.000000       -1.198437         4    ;  uncertainty k = 0.213389
        13        19        18        56     9        0.000000       -1.160236         1    ;  uncertainty k = 0.412046
        13        19        18        56     9      180.000000       -0.678617         2    ;  uncertainty k = 0.280970
        13        19        18        56     9        0.000000        0.403395         3    ;  uncertainty k = 0.184520
        13        19        18        56     9      180.000000       -0.085333         4    ;  uncertainty k = 0.033562
        13        19        18        57     9        0.000000       -1.160236         1    ;  uncertainty k = 0.412046
        13        19        18        57     9      180.000000       -0.678617         2    ;  uncertainty k = 0.280970
        13        19        18        57     9        0.000000        0.403395         3    ;  uncertainty k = 0.184520
        13        19        18        57     9      180.000000       -0.085333         4    ;  uncertainty k = 0.033562
        14        11        12        29     9        0.000000        2.679897         1    ;  uncertainty k = 1.811846
        14        11        12        29     9      180.000000       15.833686         2    ;  uncertainty k = 0.403724
        14        11        12        29     9        0.000000        1.582442         3    ;  uncertainty k = 0.460957
        14        11        12        29     9      180.000000       -0.147898         4    ;  uncertainty k = 0.285243
        15        13        12        29     9        0.000000        2.671748         1    ;  uncertainty k = 0.733324
        15        13        12        29     9      180.000000       -1.396785         2    ;  uncertainty k = 0.462789
        15        13        12        29     9        0.000000        0.517992         3    ;  uncertainty k = 0.305321
        15        13        12        29     9      180.000000        0.162244         4    ;  uncertainty k = 0.144223
        15        13        19        18     9        0.000000       -4.786160         1    ;  uncertainty k = 1.392297
        15        13        19        18     9      180.000000        0.208247         2    ;  uncertainty k = 0.760432
        15        13        19        18     9        0.000000        0.928500         3    ;  uncertainty k = 0.338726
        15        13        19        18     9      180.000000       -1.206708         4    ;  uncertainty k = 0.158537
        15        13        19        58     9        0.000000       -0.719929         1    ;  uncertainty k = 0.634624
        15        13        19        58     9      180.000000       -0.679634         2    ;  uncertainty k = 0.269971
        15        13        19        58     9        0.000000        0.106328         3    ;  uncertainty k = 0.043321
        15        13        19        58     9      180.000000       -0.121061         4    ;  uncertainty k = 0.094709
        15        13        19        59     9        0.000000       -0.719929         1    ;  uncertainty k = 0.634624
        15        13        19        59     9      180.000000       -0.679634         2    ;  uncertainty k = 0.269971
        15        13        19        59     9        0.000000        0.106328         3    ;  uncertainty k = 0.043321
        15        13        19        59     9      180.000000       -0.121061         4    ;  uncertainty k = 0.094709
        15        16        17        18     9        0.000000       -3.684684         1    ;  uncertainty k = 1.555404
        15        16        17        18     9      180.000000       -0.286572         2    ;  uncertainty k = 0.574153
        15        16        17        18     9        0.000000        0.981635         3    ;  uncertainty k = 0.134172
        15        16        17        18     9      180.000000       -1.149549         4    ;  uncertainty k = 0.220596
        15        16        17        48     9        0.000000       -1.988663         1    ;  uncertainty k = 0.821936
        15        16        17        48     9      180.000000       -0.960549         2    ;  uncertainty k = 0.272982
        15        16        17        48     9        0.000000        0.443546         3    ;  uncertainty k = 0.317502
        15        16        17        48     9      180.000000        0.183458         4    ;  uncertainty k = 0.094088
        15        16        17        55     9        0.000000       -1.929217         1    ;  uncertainty k = 0.461104
        15        16        17        55     9      180.000000       -0.447748         2    ;  uncertainty k = 0.220193
        15        16        17        55     9        0.000000        0.087566         3    ;  uncertainty k = 0.087859
        15        16        17        55     9      180.000000       -0.164482         4    ;  uncertainty k = 0.141866
        15        20        21        22     9        0.000000        3.958068         1    ;  uncertainty k = 1.380043
        15        20        21        22     9      180.000000       12.511831         2    ;  uncertainty k = 0.156026
        15        20        21        22     9        0.000000        1.263553         3    ;  uncertainty k = 0.259475
        15        20        21        22     9      180.000000       -1.435052         4    ;  uncertainty k = 0.493362
        15        20        21        23     9        0.000000        4.206341         1    ;  uncertainty k = 1.055487
        15        20        21        23     9      180.000000       13.261930         2    ;  uncertainty k = 0.104052
        15        20        21        23     9        0.000000        0.422296         3    ;  uncertainty k = 0.282045
        15        20        21        23     9      180.000000       -0.345763         4    ;  uncertainty k = 0.133307
        16        15        13        19     9        0.000000       -1.488803         1    ;  uncertainty k = 2.498315
        16        15        13        19     9      180.000000        0.528348         2    ;  uncertainty k = 0.979456
        16        15        13        19     9        0.000000        0.426545         3    ;  uncertainty k = 0.508484
        16        15        13        19     9      180.000000       -1.119787         4    ;  uncertainty k = 0.265353
        16        15        13        30     9        0.000000       -1.279143         1    ;  uncertainty k = 0.297312
        16        15        13        30     9      180.000000       -0.205650         2    ;  uncertainty k = 0.248869
        16        15        13        30     9        0.000000       -0.233633         3    ;  uncertainty k = 0.057643
        16        15        13        30     9      180.000000       -0.146482         4    ;  uncertainty k = 0.047329
        16        15        20        21     9        0.000000        0.364606         1    ;  uncertainty k = 0.383608
        16        15        20        21     9      180.000000        0.211641         2    ;  uncertainty k = 0.299414
        16        15        20        21     9        0.000000        0.181029         3    ;  uncertainty k = 0.072944
        16        15        20        21     9      180.000000        0.342393         4    ;  uncertainty k = 0.127149
        16        15        20        31     9        0.000000        0.945683         1    ;  uncertainty k = 0.464115
        16        15        20        31     9      180.000000       -0.514672         2    ;  uncertainty k = 0.347973
        16        15        20        31     9        0.000000        0.327272         3    ;  uncertainty k = 0.178732
        16        15        20        31     9      180.000000        0.059847         4    ;  uncertainty k = 0.085826
        16        17        18        19     9        0.000000       -5.487573         1    ;  uncertainty k = 0.618648
        16        17        18        19     9      180.000000        0.628450         2    ;  uncertainty k = 0.548060
        16        17        18        19     9        0.000000        1.367560         3    ;  uncertainty k = 0.173350
        16        17        18        19     9      180.000000       -1.033143         4    ;  uncertainty k = 0.273102
        16        17        18        56     9        0.000000       -1.226844         1    ;  uncertainty k = 0.266748
        16        17        18        56     9      180.000000       -0.345485         2    ;  uncertainty k = 0.101300
        16        17        18        56     9        0.000000        0.394880         3    ;  uncertainty k = 0.108227
        16        17        18        56     9      180.000000       -0.070781         4    ;  uncertainty k = 0.048007
        16        17        18        57     9        0.000000       -1.226844         1    ;  uncertainty k = 0.266748
        16        17        18        57     9      180.000000       -0.345485         2    ;  uncertainty k = 0.101300
        16        17        18        57     9        0.000000        0.394880         3    ;  uncertainty k = 0.108227
        16        17        18        57     9      180.000000       -0.070781         4    ;  uncertainty k = 0.048007
        16        17        48        49     9        0.000000       -1.170185         1    ;  uncertainty k = 0.334655
        16        17        48        49     9      180.000000        4.880266         2    ;  uncertainty k = 0.323686
        16        17        48        49     9        0.000000        1.279706         3    ;  uncertainty k = 0.118363
        16        17        48        49     9      180.000000        0.575624         4    ;  uncertainty k = 0.083005
        16        17        48        50     9        0.000000       -1.631697         1    ;  uncertainty k = 0.279350
        16        17        48        50     9      180.000000        3.392199         2    ;  uncertainty k = 0.510159
        16        17        48        50     9        0.000000        0.814553         3    ;  uncertainty k = 0.127255
        16        17        48        50     9      180.000000        0.128487         4    ;  uncertainty k = 0.053904
        17        16        15        20     9        0.000000       -2.824384         1    ;  uncertainty k = 0.488217
        17        16        15        20     9      180.000000       -0.460507         2    ;  uncertainty k = 0.536155
        17        16        15        20     9        0.000000        0.759551         3    ;  uncertainty k = 0.189386
        17        16        15        20     9      180.000000       -0.140203         4    ;  uncertainty k = 0.174781
        17        16        15        66     9        0.000000       -0.730287         1    ;  uncertainty k = 0.498293
        17        16        15        66     9      180.000000       -0.792172         2    ;  uncertainty k = 0.456680
        17        16        15        66     9        0.000000       -0.041965         3    ;  uncertainty k = 0.196130
        17        16        15        66     9      180.000000       -0.091310         4    ;  uncertainty k = 0.082273
        17        18        19        58     9        0.000000       -1.242829         1    ;  uncertainty k = 0.333977
        17        18        19        58     9      180.000000       -0.548741         2    ;  uncertainty k = 0.201763
        17        18        19        58     9        0.000000        0.486940         3    ;  uncertainty k = 0.161944
        17        18        19        58     9      180.000000       -0.063210         4    ;  uncertainty k = 0.051028
        17        18        19        59     9        0.000000       -1.242829         1    ;  uncertainty k = 0.333977
        17        18        19        59     9      180.000000       -0.548741         2    ;  uncertainty k = 0.201763
        17        18        19        59     9        0.000000        0.486940         3    ;  uncertainty k = 0.161944
        17        18        19        59     9      180.000000       -0.063210         4    ;  uncertainty k = 0.051028
        17        48        50        51     9        0.000000        9.050821         1    ;  uncertainty k = 0.304912
        17        48        50        51     9      180.000000        6.374692         2    ;  uncertainty k = 0.405917
        17        48        50        51     9        0.000000        1.178678         3    ;  uncertainty k = 0.297789
        17        48        50        51     9      180.000000        0.054538         4    ;  uncertainty k = 0.124306
        17        48        50        52     9        0.000000        9.050821         1    ;  uncertainty k = 0.304912
        17        48        50        52     9      180.000000        6.374692         2    ;  uncertainty k = 0.405917
        17        48        50        52     9        0.000000        1.178678         3    ;  uncertainty k = 0.297789
        17        48        50        52     9      180.000000        0.054538         4    ;  uncertainty k = 0.124306
        18        17        16        53     9        0.000000       -1.411123         1    ;  uncertainty k = 0.345622
        18        17        16        53     9      180.000000       -0.225290         2    ;  uncertainty k = 0.172594
        18        17        16        53     9        0.000000        0.346843         3    ;  uncertainty k = 0.114252
        18        17        16        53     9      180.000000       -0.038457         4    ;  uncertainty k = 0.044896
        18        17        16        54     9        0.000000       -1.411123         1    ;  uncertainty k = 0.345622
        18        17        16        54     9      180.000000       -0.225290         2    ;  uncertainty k = 0.172594
        18        17        16        54     9        0.000000        0.346843         3    ;  uncertainty k = 0.114252
        18        17        16        54     9      180.000000       -0.038457         4    ;  uncertainty k = 0.044896
        18        17        48        49     9        0.000000       -1.412751         1    ;  uncertainty k = 0.366362
        18        17        48        49     9      180.000000        4.939282         2    ;  uncertainty k = 0.250194
        18        17        48        49     9        0.000000        1.341107         3    ;  uncertainty k = 0.099404
        18        17        48        49     9      180.000000        0.562838         4    ;  uncertainty k = 0.064019
        18        17        48        50     9        0.000000       -1.501807         1    ;  uncertainty k = 0.463410
        18        17        48        50     9      180.000000        3.323275         2    ;  uncertainty k = 0.502078
        18        17        48        50     9        0.000000        0.807080         3    ;  uncertainty k = 0.124119
        18        17        48        50     9      180.000000        0.125518         4    ;  uncertainty k = 0.039696
        18        19        13        30     9        0.000000       -1.467615         1    ;  uncertainty k = 0.297875
        18        19        13        30     9      180.000000       -0.253639         2    ;  uncertainty k = 0.230315
        18        19        13        30     9        0.000000        0.030834         3    ;  uncertainty k = 0.099945
        18        19        13        30     9      180.000000       -0.151563         4    ;  uncertainty k = 0.108989
        19        13        12        29     9        0.000000        0.786816         1    ;  uncertainty k = 0.700969
        19        13        12        29     9      180.000000       -0.365799         2    ;  uncertainty k = 0.266910
        19        13        12        29     9        0.000000        0.283810         3    ;  uncertainty k = 0.167442
        19        13        12        29     9      180.000000        0.026430         4    ;  uncertainty k = 0.080260
        19        13        15        20     9        0.000000       -2.818638         1    ;  uncertainty k = 0.483388
        19        13        15        20     9      180.000000       -0.106847         2    ;  uncertainty k = 0.382936
        19        13        15        20     9        0.000000        0.579210         3    ;  uncertainty k = 0.178685
        19        13        15        20     9      180.000000       -0.069769         4    ;  uncertainty k = 0.196248
        19        13        15        66     9        0.000000       -1.250372         1    ;  uncertainty k = 0.259145
        19        13        15        66     9      180.000000       -0.298597         2    ;  uncertainty k = 0.369026
        19        13        15        66     9        0.000000       -0.219264         3    ;  uncertainty k = 0.084800
        19        13        15        66     9      180.000000       -0.165809         4    ;  uncertainty k = 0.070628
        19        18        17        48     9        0.000000       -3.042856         1    ;  uncertainty k = 1.255460
        19        18        17        48     9      180.000000       -0.384066         2    ;  uncertainty k = 0.506050
        19        18        17        48     9        0.000000        0.568068         3    ;  uncertainty k = 0.143563
        19        18        17        48     9      180.000000        0.123689         4    ;  uncertainty k = 0.149073
        19        18        17        55     9        0.000000       -2.461228         1    ;  uncertainty k = 0.396150
        19        18        17        55     9      180.000000        0.138744         2    ;  uncertainty k = 0.107060
        19        18        17        55     9        0.000000        0.248333         3    ;  uncertainty k = 0.111967
        19        18        17        55     9      180.000000       -0.235150         4    ;  uncertainty k = 0.140386
        20        15        13        30     9        0.000000        0.067805         1    ;  uncertainty k = 1.104345
        20        15        13        30     9      180.000000       -1.476887         2    ;  uncertainty k = 0.513663
        20        15        13        30     9        0.000000        0.491089         3    ;  uncertainty k = 0.275726
        20        15        13        30     9      180.000000       -0.256957         4    ;  uncertainty k = 0.120792
        20        15        16        53     9        0.000000       -0.427435         1    ;  uncertainty k = 0.715503
        20        15        16        53     9      180.000000       -1.219759         2    ;  uncertainty k = 0.324042
        20        15        16        53     9        0.000000        0.959594         3    ;  uncertainty k = 0.057792
        20        15        16        53     9      180.000000       -0.287421         4    ;  uncertainty k = 0.054437
        20        15        16        54     9        0.000000       -0.427435         1    ;  uncertainty k = 0.715503
        20        15        16        54     9      180.000000       -1.219759         2    ;  uncertainty k = 0.324042
        20        15        16        54     9        0.000000        0.959594         3    ;  uncertainty k = 0.057792
        20        15        16        54     9      180.000000       -0.287421         4    ;  uncertainty k = 0.054437
        20        21        22        24     9        0.000000        2.331066         1    ;  uncertainty k = 1.152102
        20        21        22        24     9      180.000000        2.596169         2    ;  uncertainty k = 0.278815
        20        21        22        24     9        0.000000        0.009927         3    ;  uncertainty k = 0.144977
        20        21        22        24     9      180.000000       -0.114334         4    ;  uncertainty k = 0.149289
        20        21        22        25     9        0.000000        3.367960         1    ;  uncertainty k = 1.051353
        20        21        22        25     9      180.000000        3.218021         2    ;  uncertainty k = 0.680396
        20        21        22        25     9        0.000000        1.143577         3    ;  uncertainty k = 0.311002
        20        21        22        25     9      180.000000       -0.348976         4    ;  uncertainty k = 0.193639
        21        20        15        66     9        0.000000        1.089648         1    ;  uncertainty k = 0.334910
        21        20        15        66     9      180.000000       -0.432136         2    ;  uncertainty k = 0.173910
        21        20        15        66     9        0.000000        0.083475         3    ;  uncertainty k = 0.110493
        21        20        15        66     9      180.000000        0.217577         4    ;  uncertainty k = 0.051810
        21        22        24        32     9        0.000000        0.338836         1    ;  uncertainty k = 0.784673
        21        22        24        32     9      180.000000       19.192857         2    ;  uncertainty k = 0.359716
        21        22        24        32     9        0.000000        1.903447         3    ;  uncertainty k = 0.386883
        21        22        24        32     9      180.000000        1.368535         4    ;  uncertainty k = 0.528772
        21        22        25        33     9        0.000000        0.370727         1    ;  uncertainty k = 1.804242
        21        22        25        33     9      180.000000        8.920830         2    ;  uncertainty k = 1.081273
        21        22        25        33     9        0.000000        0.589745         3    ;  uncertainty k = 1.110553
        21        22        25        33     9      180.000000        0.676613         4    ;  uncertainty k = 0.547063
        22        21        20        31     9        0.000000       -0.086051         1    ;  uncertainty k = 0.569285
        22        21        20        31     9      180.000000        6.824223         2    ;  uncertainty k = 1.004102
        22        21        20        31     9        0.000000        2.774672         3    ;  uncertainty k = 0.278048
        22        21        20        31     9      180.000000        0.087878         4    ;  uncertainty k = 0.345011
        22        24        32        33     9        0.000000       -0.476241         1    ;  uncertainty k = 0.425307
        22        24        32        33     9      180.000000       15.671500         2    ;  uncertainty k = 0.795841
        22        24        32        33     9        0.000000       -2.864533         3    ;  uncertainty k = 0.780902
        22        24        32        33     9      180.000000        1.605024         4    ;  uncertainty k = 0.448125
        22        24        32        37     9        0.000000        0.569206         1    ;  uncertainty k = 1.621980
        22        24        32        37     9      180.000000       12.800205         2    ;  uncertainty k = 0.282748
        22        24        32        37     9        0.000000        1.817073         3    ;  uncertainty k = 0.361654
        22        24        32        37     9      180.000000        0.682642         4    ;  uncertainty k = 0.136948
        22        25        33        32     9        0.000000       -0.523789         1    ;  uncertainty k = 1.004169
        22        25        33        32     9      180.000000       13.442345         2    ;  uncertainty k = 0.923619
        22        25        33        32     9        0.000000       -9.024257         3    ;  uncertainty k = 1.660071
        22        25        33        32     9      180.000000        1.636793         4    ;  uncertainty k = 0.487983
        22        25        33        34     9        0.000000        1.116166         1    ;  uncertainty k = 1.266411
        22        25        33        34     9      180.000000       10.158909         2    ;  uncertainty k = 0.818049
        22        25        33        34     9        0.000000        0.724355         3    ;  uncertainty k = 0.566010
        22        25        33        34     9      180.000000       -0.026620         4    ;  uncertainty k = 0.200593
        23        21        20        31     9        0.000000        2.038363         1    ;  uncertainty k = 0.746143
        23        21        20        31     9      180.000000       14.699346         2    ;  uncertainty k = 0.325315
        23        21        20        31     9        0.000000        1.840592         3    ;  uncertainty k = 0.226058
        23        21        20        31     9      180.000000       -0.518143         4    ;  uncertainty k = 0.264067
        23        21        22        24     9        0.000000       -0.975565         1    ;  uncertainty k = 1.614283
        23        21        22        24     9      180.000000        3.488550         2    ;  uncertainty k = 0.286154
        23        21        22        24     9        0.000000        0.632000         3    ;  uncertainty k = 0.220397
        23        21        22        24     9      180.000000        0.223278         4    ;  uncertainty k = 0.063243
        23        21        22        25     9        0.000000       -0.928770         1    ;  uncertainty k = 0.780300
        23        21        22        25     9      180.000000        4.634695         2    ;  uncertainty k = 0.475093
        23        21        22        25     9        0.000000        0.007574         3    ;  uncertainty k = 0.071977
        23        21        22        25     9      180.000000        0.288910         4    ;  uncertainty k = 0.240907
        24        22        25        33     9        0.000000        0.143511         1    ;  uncertainty k = 1.333641
        24        22        25        33     9      180.000000       14.564367         2    ;  uncertainty k = 1.374348
        24        22        25        33     9        0.000000       -9.893199         3    ;  uncertainty k = 1.620531
        24        22        25        33     9      180.000000        1.663619         4    ;  uncertainty k = 0.759588
        24        32        33        25     9        0.000000        0.087022         1    ;  uncertainty k = 0.519435
        24        32        33        25     9      180.000000       17.308740         2    ;  uncertainty k = 0.865665
        24        32        33        25     9        0.000000       -2.374264         3    ;  uncertainty k = 0.748324
        24        32        33        25     9      180.000000        1.160228         4    ;  uncertainty k = 0.641111
        24        32        33        34     9        0.000000        0.011055         1    ;  uncertainty k = 0.425259
        24        32        33        34     9      180.000000       14.953749         2    ;  uncertainty k = 0.328993
        24        32        33        34     9        0.000000        1.241934         3    ;  uncertainty k = 0.342959
        24        32        33        34     9      180.000000        1.144042         4    ;  uncertainty k = 0.470191
        24        32        37        36     9        0.000000       -3.954572         1    ;  uncertainty k = 1.035742
        24        32        37        36     9      180.000000        1.199577         2    ;  uncertainty k = 0.494541
        24        32        37        36     9        0.000000        0.552603         3    ;  uncertainty k = 0.196554
        24        32        37        36     9      180.000000        0.408701         4    ;  uncertainty k = 0.071879
        24        32        37        43     9        0.000000        0.678330         1    ;  uncertainty k = 0.150352
        24        32        37        43     9      180.000000        1.438459         2    ;  uncertainty k = 0.504096
        24        32        37        43     9        0.000000        0.609129         3    ;  uncertainty k = 0.196471
        24        32        37        43     9      180.000000        0.167234         4    ;  uncertainty k = 0.108981
        24        32        37        44     9        0.000000        0.678330         1    ;  uncertainty k = 0.150352
        24        32        37        44     9      180.000000        1.438459         2    ;  uncertainty k = 0.504096
        24        32        37        44     9        0.000000        0.609129         3    ;  uncertainty k = 0.196471
        24        32        37        44     9      180.000000        0.167234         4    ;  uncertainty k = 0.108981
        25        22        24        32     9        0.000000       -0.152600         1    ;  uncertainty k = 0.906407
        25        22        24        32     9      180.000000       20.432965         2    ;  uncertainty k = 0.275340
        25        22        24        32     9        0.000000       -2.337892         3    ;  uncertainty k = 1.016825
        25        22        24        32     9      180.000000        1.938626         4    ;  uncertainty k = 0.362221
        25        33        32        37     9        0.000000        0.239944         1    ;  uncertainty k = 0.547138
        25        33        32        37     9      180.000000       12.400727         2    ;  uncertainty k = 0.549556
        25        33        32        37     9        0.000000        0.936373         3    ;  uncertainty k = 0.318788
        25        33        32        37     9      180.000000        0.958147         4    ;  uncertainty k = 0.190163
        25        33        34        35     9        0.000000       -8.471687         1    ;  uncertainty k = 1.305576
        25        33        34        35     9      180.000000       -0.738803         2    ;  uncertainty k = 0.986263
        25        33        34        35     9        0.000000        0.572190         3    ;  uncertainty k = 0.535086
        25        33        34        35     9      180.000000        0.223231         4    ;  uncertainty k = 0.263405
        25        33        34        39     9        0.000000        0.153964         1    ;  uncertainty k = 0.629108
        25        33        34        39     9      180.000000        0.393717         2    ;  uncertainty k = 0.317135
        25        33        34        39     9        0.000000        0.658149         3    ;  uncertainty k = 0.161833
        25        33        34        39     9      180.000000       -0.071880         4    ;  uncertainty k = 0.067074
        25        33        34        40     9        0.000000        0.153964         1    ;  uncertainty k = 0.629108
        25        33        34        40     9      180.000000        0.393717         2    ;  uncertainty k = 0.317135
        25        33        34        40     9        0.000000        0.658149         3    ;  uncertainty k = 0.161833
        25        33        34        40     9      180.000000       -0.071880         4    ;  uncertainty k = 0.067074
        26         7         8        27     9        0.000000       -0.068234         1    ;  uncertainty k = 0.520687
        26         7         8        27     9      180.000000        8.271042         2    ;  uncertainty k = 0.496839
        26         7         8        27     9        0.000000       -0.385743         3    ;  uncertainty k = 0.261861
        26         7         8        27     9      180.000000        0.134957         4    ;  uncertainty k = 0.219011
        28        10         1        68     9        0.000000       -0.442388         1    ;  uncertainty k = 0.877306
        28        10         1        68     9      180.000000        6.568453         2    ;  uncertainty k = 0.678797
        28        10         1        68     9        0.000000        1.112441         3    ;  uncertainty k = 0.268508
        28        10         1        68     9      180.000000        1.356824         4    ;  uncertainty k = 0.241330
        29        12        13        30     9        0.000000        0.669869         1    ;  uncertainty k = 0.623193
        29        12        13        30     9      180.000000       -0.446679         2    ;  uncertainty k = 0.222564
        29        12        13        30     9        0.000000        0.186640         3    ;  uncertainty k = 0.097733
        29        12        13        30     9      180.000000        0.195275         4    ;  uncertainty k = 0.068928
        30        13        15        66     9        0.000000        1.522677         1    ;  uncertainty k = 0.281227
        30        13        15        66     9      180.000000       -0.676038         2    ;  uncertainty k = 0.164445
        30        13        15        66     9        0.000000       -0.220095         3    ;  uncertainty k = 0.167215
        30        13        15        66     9      180.000000       -0.046640         4    ;  uncertainty k = 0.124670
        30        13        19        58     9        0.000000        1.382620         1    ;  uncertainty k = 0.285894
        30        13        19        58     9      180.000000       -0.514885         2    ;  uncertainty k = 0.201964
        30        13        19        58     9        0.000000       -0.079838         3    ;  uncertainty k = 0.111491
        30        13        19        58     9      180.000000        0.041637         4    ;  uncertainty k = 0.029368
        30        13        19        59     9        0.000000        1.382620         1    ;  uncertainty k = 0.285894
        30        13        19        59     9      180.000000       -0.514885         2    ;  uncertainty k = 0.201964
        30        13        19        59     9        0.000000       -0.079838         3    ;  uncertainty k = 0.111491
        30        13        19        59     9      180.000000        0.041637         4    ;  uncertainty k = 0.029368
        31        20        15        66     9        0.000000        0.541481         1    ;  uncertainty k = 0.398177
        31        20        15        66     9      180.000000       -0.622570         2    ;  uncertainty k = 0.184277
        31        20        15        66     9        0.000000        0.191619         3    ;  uncertainty k = 0.116496
        31        20        15        66     9      180.000000        0.189193         4    ;  uncertainty k = 0.076095
        32        33        34        35     9        0.000000       -4.140071         1    ;  uncertainty k = 1.925675
        32        33        34        35     9      180.000000        2.074247         2    ;  uncertainty k = 0.552905
        32        33        34        35     9        0.000000       -0.109904         3    ;  uncertainty k = 0.505232
        32        33        34        35     9      180.000000        0.002033         4    ;  uncertainty k = 0.168271
        32        33        34        39     9        0.000000        0.751076         1    ;  uncertainty k = 0.572851
        32        33        34        39     9      180.000000        0.321327         2    ;  uncertainty k = 0.277446
        32        33        34        39     9        0.000000       -0.191165         3    ;  uncertainty k = 0.140749
        32        33        34        39     9      180.000000       -0.337116         4    ;  uncertainty k = 0.203995
        32        33        34        40     9        0.000000        0.751076         1    ;  uncertainty k = 0.572851
        32        33        34        40     9      180.000000        0.321327         2    ;  uncertainty k = 0.277446
        32        33        34        40     9        0.000000       -0.191165         3    ;  uncertainty k = 0.140749
        32        33        34        40     9      180.000000       -0.337116         4    ;  uncertainty k = 0.203995
        32        37        36        35     9        0.000000       -2.230974         1    ;  uncertainty k = 1.801449
        32        37        36        35     9      180.000000       -1.841150         2    ;  uncertainty k = 0.733686
        32        37        36        35     9        0.000000        2.407959         3    ;  uncertainty k = 0.680334
        32        37        36        35     9      180.000000       -0.535745         4    ;  uncertainty k = 0.301690
        32        37        36        41     9        0.000000        1.199598         1    ;  uncertainty k = 0.377899
        32        37        36        41     9      180.000000       -1.613470         2    ;  uncertainty k = 0.549592
        32        37        36        41     9        0.000000        0.472706         3    ;  uncertainty k = 0.260800
        32        37        36        41     9      180.000000        0.111560         4    ;  uncertainty k = 0.091588
        32        37        36        42     9        0.000000        1.199598         1    ;  uncertainty k = 0.377899
        32        37        36        42     9      180.000000       -1.613470         2    ;  uncertainty k = 0.549592
        32        37        36        42     9        0.000000        0.472706         3    ;  uncertainty k = 0.260800
        32        37        36        42     9      180.000000        0.111560         4    ;  uncertainty k = 0.091588
        33        32        37        36     9        0.000000       -4.440652         1    ;  uncertainty k = 1.431166
        33        32        37        36     9      180.000000        4.155396         2    ;  uncertainty k = 1.296225
        33        32        37        36     9        0.000000       -0.642889         3    ;  uncertainty k = 0.597439
        33        32        37        36     9      180.000000       -0.217610         4    ;  uncertainty k = 0.318749
        33        32        37        43     9        0.000000        0.013025         1    ;  uncertainty k = 0.359065
        33        32        37        43     9      180.000000        1.250042         2    ;  uncertainty k = 0.490358
        33        32        37        43     9        0.000000        0.121610         3    ;  uncertainty k = 0.182463
        33        32        37        43     9      180.000000       -0.043715         4    ;  uncertainty k = 0.054548
        33        32        37        44     9        0.000000        0.013025         1    ;  uncertainty k = 0.359065
        33        32        37        44     9      180.000000        1.250042         2    ;  uncertainty k = 0.490358
        33        32        37        44     9        0.000000        0.121610         3    ;  uncertainty k = 0.182463
        33        32        37        44     9      180.000000       -0.043715         4    ;  uncertainty k = 0.054548
        33        34        35        36     9        0.000000       -2.931117         1    ;  uncertainty k = 2.436693
        33        34        35        36     9      180.000000       -1.451129         2    ;  uncertainty k = 0.464093
        33        34        35        36     9        0.000000        1.404828         3    ;  uncertainty k = 0.130307
        33        34        35        36     9      180.000000       -0.528609         4    ;  uncertainty k = 0.249297
        33        34        35        38     9        0.000000       -2.021362         1    ;  uncertainty k = 1.008927
        33        34        35        38     9      180.000000       -1.118312         2    ;  uncertainty k = 0.472230
        33        34        35        38     9        0.000000        1.258207         3    ;  uncertainty k = 0.234248
        33        34        35        38     9      180.000000       -0.045254         4    ;  uncertainty k = 0.250793
        34        33        32        37     9        0.000000        0.282381         1    ;  uncertainty k = 0.657141
        34        33        32        37     9      180.000000       10.551064         2    ;  uncertainty k = 0.221306
        34        33        32        37     9        0.000000        1.077819         3    ;  uncertainty k = 0.516713
        34        33        32        37     9      180.000000        0.991474         4    ;  uncertainty k = 0.186199
        34        35        36        37     9        0.000000       -4.350974         1    ;  uncertainty k = 2.057076
        34        35        36        37     9      180.000000       -1.496991         2    ;  uncertainty k = 0.799614
        34        35        36        37     9        0.000000        0.281379         3    ;  uncertainty k = 0.338606
        34        35        36        37     9      180.000000       -0.187310         4    ;  uncertainty k = 0.252807
        34        35        36        41     9        0.000000       -6.987612         1    ;  uncertainty k = 0.982733
        34        35        36        41     9      180.000000       -0.297910         2    ;  uncertainty k = 0.446998
        34        35        36        41     9        0.000000        0.675891         3    ;  uncertainty k = 0.207193
        34        35        36        41     9      180.000000       -0.045061         4    ;  uncertainty k = 0.100310
        34        35        36        42     9        0.000000       -6.987612         1    ;  uncertainty k = 0.982733
        34        35        36        42     9      180.000000       -0.297910         2    ;  uncertainty k = 0.446998
        34        35        36        42     9        0.000000        0.675891         3    ;  uncertainty k = 0.207193
        34        35        36        42     9      180.000000       -0.045061         4    ;  uncertainty k = 0.100310
        34        35        38        45     9        0.000000       -4.178510         1    ;  uncertainty k = 0.410688
        34        35        38        45     9      180.000000       -2.187807         2    ;  uncertainty k = 0.398638
        34        35        38        45     9        0.000000        1.157619         3    ;  uncertainty k = 0.069416
        34        35        38        45     9      180.000000        0.075129         4    ;  uncertainty k = 0.097696
        34        35        38        46     9        0.000000       -4.178510         1    ;  uncertainty k = 0.410688
        34        35        38        46     9      180.000000       -2.187807         2    ;  uncertainty k = 0.398638
        34        35        38        46     9        0.000000        1.157619         3    ;  uncertainty k = 0.069416
        34        35        38        46     9      180.000000        0.075129         4    ;  uncertainty k = 0.097696
        34        35        38        47     9        0.000000       -4.178510         1    ;  uncertainty k = 0.410688
        34        35        38        47     9      180.000000       -2.187807         2    ;  uncertainty k = 0.398638
        34        35        38        47     9        0.000000        1.157619         3    ;  uncertainty k = 0.069416
        34        35        38        47     9      180.000000        0.075129         4    ;  uncertainty k = 0.097696
        35        36        37        43     9        0.000000       -0.446420         1    ;  uncertainty k = 0.389425
        35        36        37        43     9      180.000000       -0.446895         2    ;  uncertainty k = 0.443633
        35        36        37        43     9        0.000000        1.043482         3    ;  uncertainty k = 0.139130
        35        36        37        43     9      180.000000       -0.054508         4    ;  uncertainty k = 0.166266
        35        36        37        44     9        0.000000       -0.446420         1    ;  uncertainty k = 0.389425
        35        36        37        44     9      180.000000       -0.446895         2    ;  uncertainty k = 0.443633
        35        36        37        44     9        0.000000        1.043482         3    ;  uncertainty k = 0.139130
        35        36        37        44     9      180.000000       -0.054508         4    ;  uncertainty k = 0.166266
        36        35        34        39     9        0.000000       -4.951174         1    ;  uncertainty k = 1.276230
        36        35        34        39     9      180.000000       -0.772512         2    ;  uncertainty k = 0.594344
        36        35        34        39     9        0.000000        0.687582         3    ;  uncertainty k = 0.234878
        36        35        34        39     9      180.000000        0.165440         4    ;  uncertainty k = 0.126758
        36        35        34        40     9        0.000000       -4.951174         1    ;  uncertainty k = 1.276230
        36        35        34        40     9      180.000000       -0.772512         2    ;  uncertainty k = 0.594344
        36        35        34        40     9        0.000000        0.687582         3    ;  uncertainty k = 0.234878
        36        35        34        40     9      180.000000        0.165440         4    ;  uncertainty k = 0.126758
        36        35        38        45     9        0.000000       -4.259086         1    ;  uncertainty k = 0.974846
        36        35        38        45     9      180.000000       -2.027003         2    ;  uncertainty k = 0.417753
        36        35        38        45     9        0.000000        1.017651         3    ;  uncertainty k = 0.103023
        36        35        38        45     9      180.000000        0.065258         4    ;  uncertainty k = 0.091860
        36        35        38        46     9        0.000000       -4.259086         1    ;  uncertainty k = 0.974846
        36        35        38        46     9      180.000000       -2.027003         2    ;  uncertainty k = 0.417753
        36        35        38        46     9        0.000000        1.017651         3    ;  uncertainty k = 0.103023
        36        35        38        46     9      180.000000        0.065258         4    ;  uncertainty k = 0.091860
        36        35        38        47     9        0.000000       -4.259086         1    ;  uncertainty k = 0.974846
        36        35        38        47     9      180.000000       -2.027003         2    ;  uncertainty k = 0.417753
        36        35        38        47     9        0.000000        1.017651         3    ;  uncertainty k = 0.103023
        36        35        38        47     9      180.000000        0.065258         4    ;  uncertainty k = 0.091860
        37        36        35        38     9        0.000000       -2.366425         1    ;  uncertainty k = 0.799682
        37        36        35        38     9      180.000000       -0.858215         2    ;  uncertainty k = 0.575132
        37        36        35        38     9        0.000000        0.300582         3    ;  uncertainty k = 0.302529
        37        36        35        38     9      180.000000        0.326407         4    ;  uncertainty k = 0.081722
        38        35        34        39     9        0.000000       -2.503106         1    ;  uncertainty k = 0.610923
        38        35        34        39     9      180.000000       -1.207857         2    ;  uncertainty k = 0.461275
        38        35        34        39     9        0.000000        0.607046         3    ;  uncertainty k = 0.147323
        38        35        34        39     9      180.000000        0.178325         4    ;  uncertainty k = 0.088460
        38        35        34        40     9        0.000000       -2.503106         1    ;  uncertainty k = 0.610923
        38        35        34        40     9      180.000000       -1.207857         2    ;  uncertainty k = 0.461275
        38        35        34        40     9        0.000000        0.607046         3    ;  uncertainty k = 0.147323
        38        35        34        40     9      180.000000        0.178325         4    ;  uncertainty k = 0.088460
        38        35        36        41     9        0.000000       -3.143701         1    ;  uncertainty k = 0.576024
        38        35        36        41     9      180.000000       -1.381403         2    ;  uncertainty k = 0.223671
        38        35        36        41     9        0.000000        0.354530         3    ;  uncertainty k = 0.126408
        38        35        36        41     9      180.000000        0.148173         4    ;  uncertainty k = 0.137426
        38        35        36        42     9        0.000000       -3.143701         1    ;  uncertainty k = 0.576024
        38        35        36        42     9      180.000000       -1.381403         2    ;  uncertainty k = 0.223671
        38        35        36        42     9        0.000000        0.354530         3    ;  uncertainty k = 0.126408
        38        35        36        42     9      180.000000        0.148173         4    ;  uncertainty k = 0.137426
        41        36        37        43     9        0.000000       -0.690419         1    ;  uncertainty k = 0.249272
        41        36        37        43     9      180.000000        0.819889         2    ;  uncertainty k = 0.297922
        41        36        37        43     9        0.000000        0.232501         3    ;  uncertainty k = 0.086816
        41        36        37        43     9      180.000000       -0.277806         4    ;  uncertainty k = 0.067741
        41        36        37        44     9        0.000000       -0.690419         1    ;  uncertainty k = 0.249272
        41        36        37        44     9      180.000000        0.819889         2    ;  uncertainty k = 0.297922
        41        36        37        44     9        0.000000        0.232501         3    ;  uncertainty k = 0.086816
        41        36        37        44     9      180.000000       -0.277806         4    ;  uncertainty k = 0.067741
        42        36        37        43     9        0.000000       -0.690419         1    ;  uncertainty k = 0.249272
        42        36        37        43     9      180.000000        0.819889         2    ;  uncertainty k = 0.297922
        42        36        37        43     9        0.000000        0.232501         3    ;  uncertainty k = 0.086816
        42        36        37        43     9      180.000000       -0.277806         4    ;  uncertainty k = 0.067741
        42        36        37        44     9        0.000000       -0.690419         1    ;  uncertainty k = 0.249272
        42        36        37        44     9      180.000000        0.819889         2    ;  uncertainty k = 0.297922
        42        36        37        44     9        0.000000        0.232501         3    ;  uncertainty k = 0.086816
        42        36        37        44     9      180.000000       -0.277806         4    ;  uncertainty k = 0.067741
        48        17        16        53     9        0.000000        2.074967         1    ;  uncertainty k = 0.921198
        48        17        16        53     9      180.000000       -0.794571         2    ;  uncertainty k = 0.180952
        48        17        16        53     9        0.000000        0.466866         3    ;  uncertainty k = 0.273235
        48        17        16        53     9      180.000000        0.035537         4    ;  uncertainty k = 0.093276
        48        17        16        54     9        0.000000        2.074967         1    ;  uncertainty k = 0.921198
        48        17        16        54     9      180.000000       -0.794571         2    ;  uncertainty k = 0.180952
        48        17        16        54     9        0.000000        0.466866         3    ;  uncertainty k = 0.273235
        48        17        16        54     9      180.000000        0.035537         4    ;  uncertainty k = 0.093276
        48        17        18        56     9        0.000000        2.252951         1    ;  uncertainty k = 0.998081
        48        17        18        56     9      180.000000       -0.859965         2    ;  uncertainty k = 0.120364
        48        17        18        56     9        0.000000        0.534711         3    ;  uncertainty k = 0.219264
        48        17        18        56     9      180.000000        0.057172         4    ;  uncertainty k = 0.086080
        48        17        18        57     9        0.000000        2.252951         1    ;  uncertainty k = 0.998081
        48        17        18        57     9      180.000000       -0.859965         2    ;  uncertainty k = 0.120364
        48        17        18        57     9        0.000000        0.534711         3    ;  uncertainty k = 0.219264
        48        17        18        57     9      180.000000        0.057172         4    ;  uncertainty k = 0.086080
        48        50        51        60     9        0.000000        0.159650         1    ;  uncertainty k = 0.146342
        48        50        51        60     9      180.000000       -0.144813         2    ;  uncertainty k = 0.094204
        48        50        51        60     9        0.000000        0.215227         3    ;  uncertainty k = 0.050987
        48        50        51        60     9      180.000000        0.244118         4    ;  uncertainty k = 0.052779
        48        50        51        61     9        0.000000        0.159650         1    ;  uncertainty k = 0.146342
        48        50        51        61     9      180.000000       -0.144813         2    ;  uncertainty k = 0.094204
        48        50        51        61     9        0.000000        0.215227         3    ;  uncertainty k = 0.050987
        48        50        51        61     9      180.000000        0.244118         4    ;  uncertainty k = 0.052779
        48        50        51        62     9        0.000000        0.159650         1    ;  uncertainty k = 0.146342
        48        50        51        62     9      180.000000       -0.144813         2    ;  uncertainty k = 0.094204
        48        50        51        62     9        0.000000        0.215227         3    ;  uncertainty k = 0.050987
        48        50        51        62     9      180.000000        0.244118         4    ;  uncertainty k = 0.052779
        48        50        52        63     9        0.000000        0.159650         1    ;  uncertainty k = 0.146342
        48        50        52        63     9      180.000000       -0.144813         2    ;  uncertainty k = 0.094204
        48        50        52        63     9        0.000000        0.215227         3    ;  uncertainty k = 0.050987
        48        50        52        63     9      180.000000        0.244118         4    ;  uncertainty k = 0.052779
        48        50        52        64     9        0.000000        0.159650         1    ;  uncertainty k = 0.146342
        48        50        52        64     9      180.000000       -0.144813         2    ;  uncertainty k = 0.094204
        48        50        52        64     9        0.000000        0.215227         3    ;  uncertainty k = 0.050987
        48        50        52        64     9      180.000000        0.244118         4    ;  uncertainty k = 0.052779
        48        50        52        65     9        0.000000        0.159650         1    ;  uncertainty k = 0.146342
        48        50        52        65     9      180.000000       -0.144813         2    ;  uncertainty k = 0.094204
        48        50        52        65     9        0.000000        0.215227         3    ;  uncertainty k = 0.050987
        48        50        52        65     9      180.000000        0.244118         4    ;  uncertainty k = 0.052779
        49        48        17        55     9        0.000000       -0.646773         1    ;  uncertainty k = 0.397646
        49        48        17        55     9      180.000000        3.762065         2    ;  uncertainty k = 0.492695
        49        48        17        55     9        0.000000        1.483897         3    ;  uncertainty k = 0.235291
        49        48        17        55     9      180.000000       -0.025919         4    ;  uncertainty k = 0.096422
        49        48        50        51     9        0.000000        6.844605         1    ;  uncertainty k = 0.882211
        49        48        50        51     9      180.000000       19.790839         2    ;  uncertainty k = 0.105250
        49        48        50        51     9        0.000000       -0.220230         3    ;  uncertainty k = 0.161100
        49        48        50        51     9      180.000000       -1.123904         4    ;  uncertainty k = 0.136735
        49        48        50        52     9        0.000000        6.844605         1    ;  uncertainty k = 0.882211
        49        48        50        52     9      180.000000       19.790839         2    ;  uncertainty k = 0.105250
        49        48        50        52     9        0.000000       -0.220230         3    ;  uncertainty k = 0.161100
        49        48        50        52     9      180.000000       -1.123904         4    ;  uncertainty k = 0.136735
        50        48        17        55     9        0.000000       -0.975826         1    ;  uncertainty k = 0.419407
        50        48        17        55     9      180.000000        2.303974         2    ;  uncertainty k = 0.241164
        50        48        17        55     9        0.000000        0.361698         3    ;  uncertainty k = 0.116719
        50        48        17        55     9      180.000000        0.170218         4    ;  uncertainty k = 0.047482
        51        50        52        63     9        0.000000       -0.681994         1    ;  uncertainty k = 0.166187
        51        50        52        63     9      180.000000       -1.033629         2    ;  uncertainty k = 0.139918
        51        50        52        63     9        0.000000        1.312135         3    ;  uncertainty k = 0.057549
        51        50        52        63     9      180.000000        0.172025         4    ;  uncertainty k = 0.029064
        51        50        52        64     9        0.000000       -0.681994         1    ;  uncertainty k = 0.166187
        51        50        52        64     9      180.000000       -1.033629         2    ;  uncertainty k = 0.139918
        51        50        52        64     9        0.000000        1.312135         3    ;  uncertainty k = 0.057549
        51        50        52        64     9      180.000000        0.172025         4    ;  uncertainty k = 0.029064
        51        50        52        65     9        0.000000       -0.681994         1    ;  uncertainty k = 0.166187
        51        50        52        65     9      180.000000       -1.033629         2    ;  uncertainty k = 0.139918
        51        50        52        65     9        0.000000        1.312135         3    ;  uncertainty k = 0.057549
        51        50        52        65     9      180.000000        0.172025         4    ;  uncertainty k = 0.029064
        52        50        51        60     9        0.000000       -0.681994         1    ;  uncertainty k = 0.166187
        52        50        51        60     9      180.000000       -1.033629         2    ;  uncertainty k = 0.139918
        52        50        51        60     9        0.000000        1.312135         3    ;  uncertainty k = 0.057549
        52        50        51        60     9      180.000000        0.172025         4    ;  uncertainty k = 0.029064
        52        50        51        61     9        0.000000       -0.681994         1    ;  uncertainty k = 0.166187
        52        50        51        61     9      180.000000       -1.033629         2    ;  uncertainty k = 0.139918
        52        50        51        61     9        0.000000        1.312135         3    ;  uncertainty k = 0.057549
        52        50        51        61     9      180.000000        0.172025         4    ;  uncertainty k = 0.029064
        52        50        51        62     9        0.000000       -0.681994         1    ;  uncertainty k = 0.166187
        52        50        51        62     9      180.000000       -1.033629         2    ;  uncertainty k = 0.139918
        52        50        51        62     9        0.000000        1.312135         3    ;  uncertainty k = 0.057549
        52        50        51        62     9      180.000000        0.172025         4    ;  uncertainty k = 0.029064
        53        16        15        66     9        0.000000        1.227188         1    ;  uncertainty k = 0.333718
        53        16        15        66     9      180.000000       -0.559059         2    ;  uncertainty k = 0.228850
        53        16        15        66     9        0.000000       -0.052658         3    ;  uncertainty k = 0.148156
        53        16        15        66     9      180.000000        0.050866         4    ;  uncertainty k = 0.043410
        53        16        17        55     9        0.000000        1.275091         1    ;  uncertainty k = 0.308666
        53        16        17        55     9      180.000000       -0.191825         2    ;  uncertainty k = 0.161770
        53        16        17        55     9        0.000000       -0.005639         3    ;  uncertainty k = 0.106020
        53        16        17        55     9      180.000000        0.069270         4    ;  uncertainty k = 0.064132
        54        16        15        66     9        0.000000        1.227188         1    ;  uncertainty k = 0.333718
        54        16        15        66     9      180.000000       -0.559059         2    ;  uncertainty k = 0.228850
        54        16        15        66     9        0.000000       -0.052658         3    ;  uncertainty k = 0.148156
        54        16        15        66     9      180.000000        0.050866         4    ;  uncertainty k = 0.043410
        54        16        17        55     9        0.000000        1.275091         1    ;  uncertainty k = 0.308666
        54        16        17        55     9      180.000000       -0.191825         2    ;  uncertainty k = 0.161770
        54        16        17        55     9        0.000000       -0.005639         3    ;  uncertainty k = 0.106020
        54        16        17        55     9      180.000000        0.069270         4    ;  uncertainty k = 0.064132
        55        17        18        56     9        0.000000        1.375228         1    ;  uncertainty k = 0.292892
        55        17        18        56     9      180.000000       -0.112288         2    ;  uncertainty k = 0.227466
        55        17        18        56     9        0.000000       -0.024960         3    ;  uncertainty k = 0.142904
        55        17        18        56     9      180.000000        0.069958         4    ;  uncertainty k = 0.050452
        55        17        18        57     9        0.000000        1.375228         1    ;  uncertainty k = 0.292892
        55        17        18        57     9      180.000000       -0.112288         2    ;  uncertainty k = 0.227466
        55        17        18        57     9        0.000000       -0.024960         3    ;  uncertainty k = 0.142904
        55        17        18        57     9      180.000000        0.069958         4    ;  uncertainty k = 0.050452
        56        18        19        58     9        0.000000        2.326715         1    ;  uncertainty k = 0.674870
        56        18        19        58     9      180.000000       -0.090546         2    ;  uncertainty k = 0.158885
        56        18        19        58     9        0.000000        0.306144         3    ;  uncertainty k = 0.135782
        56        18        19        58     9      180.000000        0.130862         4    ;  uncertainty k = 0.038651
        56        18        19        59     9        0.000000        2.326715         1    ;  uncertainty k = 0.674870
        56        18        19        59     9      180.000000       -0.090546         2    ;  uncertainty k = 0.158885
        56        18        19        59     9        0.000000        0.306144         3    ;  uncertainty k = 0.135782
        56        18        19        59     9      180.000000        0.130862         4    ;  uncertainty k = 0.038651
        57        18        19        58     9        0.000000        2.326715         1    ;  uncertainty k = 0.674870
        57        18        19        58     9      180.000000       -0.090546         2    ;  uncertainty k = 0.158885
        57        18        19        58     9        0.000000        0.306144         3    ;  uncertainty k = 0.135782
        57        18        19        58     9      180.000000        0.130862         4    ;  uncertainty k = 0.038651
        57        18        19        59     9        0.000000        2.326715         1    ;  uncertainty k = 0.674870
        57        18        19        59     9      180.000000       -0.090546         2    ;  uncertainty k = 0.158885
        57        18        19        59     9        0.000000        0.306144         3    ;  uncertainty k = 0.135782
        57        18        19        59     9      180.000000        0.130862         4    ;  uncertainty k = 0.038651

[ dihedrals ] ; impropers
;       ai        aj        ak        al funct           phase               k        pn
         1         3        10        68     4      180.000000        5.176145         2    ;  uncertainty k = 0.549283
         1        10        68         3     4      180.000000        5.176145         2    ;  uncertainty k = 0.549283
         1        68         3        10     4      180.000000        5.176145         2    ;  uncertainty k = 0.549283
         3         1         4         7     4      180.000000       19.493356         2    ;  uncertainty k = 0.069968
         3         4         7         1     4      180.000000       19.493356         2    ;  uncertainty k = 0.069968
         3         7         1         4     4      180.000000       19.493356         2    ;  uncertainty k = 0.069968
         4         3         5        67     4      180.000000        0.462890         2    ;  uncertainty k = 0.804847
         4         5        67         3     4      180.000000        0.462890         2    ;  uncertainty k = 0.804847
         4        67         3         5     4      180.000000        0.462890         2    ;  uncertainty k = 0.804847
         5         4         6        11     4      180.000000       28.775752         2    ;  uncertainty k = 0.101741
         5         6        11         4     4      180.000000       28.775752         2    ;  uncertainty k = 0.101741
         5        11         4         6     4      180.000000       28.775752         2    ;  uncertainty k = 0.101741
         7         3         8        26     4      180.000000        2.507469         2    ;  uncertainty k = 0.260143
         7         8        26         3     4      180.000000        2.507469         2    ;  uncertainty k = 0.260143
         7        26         3         8     4      180.000000        2.507469         2    ;  uncertainty k = 0.260143
         8         7         9        27     4      180.000000        4.892714         2    ;  uncertainty k = 0.122891
         8         9        27         7     4      180.000000        4.892714         2    ;  uncertainty k = 0.122891
         8        27         7         9     4      180.000000        4.892714         2    ;  uncertainty k = 0.122891
         9         2         8        10     4      180.000000       11.594118         2    ;  uncertainty k = 0.112336
         9         8        10         2     4      180.000000       11.594118         2    ;  uncertainty k = 0.112336
         9        10         2         8     4      180.000000       11.594118         2    ;  uncertainty k = 0.112336
        10         1         9        28     4      180.000000        5.225877         2    ;  uncertainty k = 0.213398
        10         9        28         1     4      180.000000        5.225877         2    ;  uncertainty k = 0.213398
        10        28         1         9     4      180.000000        5.225877         2    ;  uncertainty k = 0.213398
        11         5        12        14     4      180.000000       46.294507         2    ;  uncertainty k = 0.085641
        11        12        14         5     4      180.000000       46.294507         2    ;  uncertainty k = 0.085641
        11        14         5        12     4      180.000000       46.294507         2    ;  uncertainty k = 0.085641
        12        11        13        29     4      180.000000        0.582997         2    ;  uncertainty k = 0.799896
        12        13        29        11     4      180.000000        0.582997         2    ;  uncertainty k = 0.799896
        12        29        11        13     4      180.000000        0.582997         2    ;  uncertainty k = 0.799896
        21        20        22        23     4      180.000000       49.476644         2    ;  uncertainty k = 0.014914
        21        22        23        20     4      180.000000       49.476644         2    ;  uncertainty k = 0.014914
        21        23        20        22     4      180.000000       49.476644         2    ;  uncertainty k = 0.014914
        22        21        24        25     4      180.000000        4.762177         2    ;  uncertainty k = 0.485670
        22        24        25        21     4      180.000000        4.762177         2    ;  uncertainty k = 0.485670
        22        25        21        24     4      180.000000        4.762177         2    ;  uncertainty k = 0.485670
        32        24        33        37     4      180.000000       10.302524         2    ;  uncertainty k = 0.235813
        32        33        37        24     4      180.000000       10.302524         2    ;  uncertainty k = 0.235813
        32        37        24        33     4      180.000000       10.302524         2    ;  uncertainty k = 0.235813
        33        25        32        34     4      180.000000        2.894551         2    ;  uncertainty k = 0.672593
        33        32        34        25     4      180.000000        2.894551         2    ;  uncertainty k = 0.672593
        33        34        25        32     4      180.000000        2.894551         2    ;  uncertainty k = 0.672593
        48        17        49        50     4      180.000000       51.316646         2    ;  uncertainty k = 0.028239
        48        49        50        17     4      180.000000       51.316646         2    ;  uncertainty k = 0.028239
        48        50        17        49     4      180.000000       51.316646         2    ;  uncertainty k = 0.028239

[ pairs ]
;       ai        aj funct
         1         2     1
         1         5     1
         1         8     1
         1        26     1
         1        67     1
         2         7     1
         2        27     1
         2        28     1
         3         6     1
         3         9     1
         3        11     1
         3        27     1
         3        28     1
         3        69     1
         3        70     1
         4         8     1
         4        10     1
         4        12     1
         4        14     1
         4        26     1
         4        68     1
         5         7     1
         5        13     1
         5        29     1
         5        69     1
         5        70     1
         6        10     1
         6        12     1
         6        14     1
         6        67     1
         7        10     1
         7        67     1
         7        68     1
         8        28     1
         9        26     1
         9        68     1
        10        27     1
        10        69     1
        10        70     1
        11        15     1
        11        19     1
        11        30     1
        11        67     1
        11        68     1
        12        16     1
        12        18     1
        12        20     1
        12        58     1
        12        59     1
        12        66     1
        13        14     1
        13        17     1
        13        21     1
        13        31     1
        13        53     1
        13        54     1
        13        56     1
        13        57     1
        14        29     1
        15        18     1
        15        22     1
        15        23     1
        15        29     1
        15        48     1
        15        55     1
        15        58     1
        15        59     1
        16        19     1
        16        21     1
        16        30     1
        16        31     1
        16        49     1
        16        50     1
        16        56     1
        16        57     1
        17        20     1
        17        51     1
        17        52     1
        17        58     1
        17        59     1
        17        66     1
        18        30     1
        18        49     1
        18        50     1
        18        53     1
        18        54     1
        19        20     1
        19        29     1
        19        48     1
        19        55     1
        19        66     1
        20        24     1
        20        25     1
        20        30     1
        20        53     1
        20        54     1
        21        32     1
        21        33     1
        21        66     1
        22        31     1
        22        34     1
        22        37     1
        23        24     1
        23        25     1
        23        31     1
        24        34     1
        24        36     1
        24        43     1
        24        44     1
        25        35     1
        25        37     1
        25        39     1
        25        40     1
        26        27     1
        28        68     1
        29        30     1
        30        58     1
        30        59     1
        30        66     1
        31        66     1
        32        35     1
        32        39     1
        32        40     1
        32        41     1
        32        42     1
        33        36     1
        33        38     1
        33        43     1
        33        44     1
        34        37     1
        34        41     1
        34        42     1
        34        45     1
        34        46     1
        34        47     1
        35        43     1
        35        44     1
        36        39     1
        36        40     1
        36        45     1
        36        46     1
        36        47     1
        37        38     1
        38        39     1
        38        40     1
        38        41     1
        38        42     1
        41        43     1
        41        44     1
        42        43     1
        42        44     1
        48        53     1
        48        54     1
        48        56     1
        48        57     1
        48        60     1
        48        61     1
        48        62     1
        48        63     1
        48        64     1
        48        65     1
        49        51     1
        49        52     1
        49        55     1
        50        55     1
        51        63     1
        51        64     1
        51        65     1
        52        60     1
        52        61     1
        52        62     1
        53        55     1
        53        66     1
        54        55     1
        54        66     1
        55        56     1
        55        57     1
        56        58     1
        56        59     1
        57        58     1
        57        59     1
