; ITP file created by ByteFF-joint-25, 2025-07-14 11:37:38.664188

[ atomtypes ]
;name           bonded.type        at.num        mass        charge   ptype           sigma         epsilon
 c0bf                                   6      0.0000       0.00000       A     3.31569e-01     4.12391e-01    ;  uncertainty sigma = 0.000016, epsilon = 0.001282
 n1bf                                   7      0.0000       0.00000       A     3.27039e-01     4.89203e-01    ;  uncertainty sigma = 0.000019, epsilon = 0.002961
 c2bf                                   6      0.0000       0.00000       A     3.39788e-01     4.50842e-01    ;  uncertainty sigma = 0.000020, epsilon = 0.000913
 o3bf                                   8      0.0000       0.00000       A     3.04813e-01     6.12607e-01    ;  uncertainty sigma = 0.000021, epsilon = 0.000880
 c4bf                                   6      0.0000       0.00000       A     3.39779e-01     4.50691e-01    ;  uncertainty sigma = 0.000021, epsilon = 0.001071
 c5bf                                   6      0.0000       0.00000       A     3.39785e-01     4.51177e-01    ;  uncertainty sigma = 0.000013, epsilon = 0.000568
 c6bf                                   6      0.0000       0.00000       A     3.39788e-01     4.50813e-01    ;  uncertainty sigma = 0.000005, epsilon = 0.001015
 c7bf                                   6      0.0000       0.00000       A     3.39784e-01     4.51089e-01    ;  uncertainty sigma = 0.000005, epsilon = 0.000646
 c8bf                                   6      0.0000       0.00000       A     3.39763e-01     4.50989e-01    ;  uncertainty sigma = 0.000009, epsilon = 0.000663
 n9bf                                   7      0.0000       0.00000       A     3.27037e-01     4.89849e-01    ;  uncertainty sigma = 0.000029, epsilon = 0.003194
 c10bf                                  6      0.0000       0.00000       A     3.31529e-01     4.12690e-01    ;  uncertainty sigma = 0.000018, epsilon = 0.001128
 c11bf                                  6      0.0000       0.00000       A     3.31525e-01     4.13652e-01    ;  uncertainty sigma = 0.000013, epsilon = 0.001225
 o12bf                                  8      0.0000       0.00000       A     3.04890e-01     6.12219e-01    ;  uncertainty sigma = 0.000024, epsilon = 0.000874
 n13bf                                  7      0.0000       0.00000       A     3.38354e-01     3.93161e-01    ;  uncertainty sigma = 0.000020, epsilon = 0.001245
 s14bf                                 16      0.0000       0.00000       A     3.53288e-01     1.18179e+00    ;  uncertainty sigma = 0.000032, epsilon = 0.002346
 h15bf                                  1      0.0000       0.00000       A     1.10669e-01     4.16163e-02    ;  uncertainty sigma = 0.000085, epsilon = 0.000806
 h16bf                                  1      0.0000       0.00000       A     2.42171e-01     8.67682e-02    ;  uncertainty sigma = 0.000031, epsilon = 0.001303
 h17bf                                  1      0.0000       0.00000       A     1.10666e-01     4.15404e-02    ;  uncertainty sigma = 0.000113, epsilon = 0.000907
 c18bf                                  6      0.0000       0.00000       A     3.31531e-01     4.13284e-01    ;  uncertainty sigma = 0.000022, epsilon = 0.000692
 c19bf                                  6      0.0000       0.00000       A     3.31510e-01     4.13232e-01    ;  uncertainty sigma = 0.000021, epsilon = 0.000971
 c20bf                                  6      0.0000       0.00000       A     3.39772e-01     4.51291e-01    ;  uncertainty sigma = 0.000007, epsilon = 0.001369
 n21bf                                  7      0.0000       0.00000       A     3.36491e-01     3.58344e-01    ;  uncertainty sigma = 0.000019, epsilon = 0.001758
 c22bf                                  6      0.0000       0.00000       A     3.39770e-01     4.51225e-01    ;  uncertainty sigma = 0.000009, epsilon = 0.000671
 c23bf                                  6      0.0000       0.00000       A     3.39762e-01     4.51164e-01    ;  uncertainty sigma = 0.000008, epsilon = 0.001424
 c24bf                                  6      0.0000       0.00000       A     3.39770e-01     4.51318e-01    ;  uncertainty sigma = 0.000003, epsilon = 0.000740
 h25bf                                  1      0.0000       0.00000       A     2.42250e-01     8.62902e-02    ;  uncertainty sigma = 0.000037, epsilon = 0.000964
 h26bf                                  1      0.0000       0.00000       A     2.42250e-01     8.62902e-02    ;  uncertainty sigma = 0.000037, epsilon = 0.000964
 h27bf                                  1      0.0000       0.00000       A     2.42218e-01     8.69005e-02    ;  uncertainty sigma = 0.000021, epsilon = 0.000739
 h28bf                                  1      0.0000       0.00000       A     2.42218e-01     8.69005e-02    ;  uncertainty sigma = 0.000021, epsilon = 0.000739
 h29bf                                  1      0.0000       0.00000       A     2.60015e-01     8.68230e-02    ;  uncertainty sigma = 0.000020, epsilon = 0.000739
 h30bf                                  1      0.0000       0.00000       A     2.60015e-01     8.68230e-02    ;  uncertainty sigma = 0.000020, epsilon = 0.000739
 h31bf                                  1      0.0000       0.00000       A     2.42198e-01     8.68693e-02    ;  uncertainty sigma = 0.000014, epsilon = 0.000543
 h32bf                                  1      0.0000       0.00000       A     2.42198e-01     8.68693e-02    ;  uncertainty sigma = 0.000014, epsilon = 0.000543
 h33bf                                  1      0.0000       0.00000       A     2.42198e-01     8.68693e-02    ;  uncertainty sigma = 0.000014, epsilon = 0.000543
 c34bf                                  6      0.0000       0.00000       A     3.31545e-01     4.13066e-01    ;  uncertainty sigma = 0.000011, epsilon = 0.001034
 o35bf                                  8      0.0000       0.00000       A     3.04819e-01     6.12467e-01    ;  uncertainty sigma = 0.000013, epsilon = 0.000996
 n36bf                                  7      0.0000       0.00000       A     3.18136e-01     6.84509e-01    ;  uncertainty sigma = 0.000019, epsilon = 0.001339
 c37bf                                  6      0.0000       0.00000       A     3.39777e-01     4.50876e-01    ;  uncertainty sigma = 0.000006, epsilon = 0.000504
 c38bf                                  6      0.0000       0.00000       A     3.39777e-01     4.50876e-01    ;  uncertainty sigma = 0.000006, epsilon = 0.000504
 h39bf                                  1      0.0000       0.00000       A     2.60016e-01     8.65219e-02    ;  uncertainty sigma = 0.000021, epsilon = 0.000613
 h40bf                                  1      0.0000       0.00000       A     2.60016e-01     8.65219e-02    ;  uncertainty sigma = 0.000021, epsilon = 0.000613
 h41bf                                  1      0.0000       0.00000       A     2.60030e-01     8.70270e-02    ;  uncertainty sigma = 0.000011, epsilon = 0.000538
 h42bf                                  1      0.0000       0.00000       A     2.60020e-01     8.66352e-02    ;  uncertainty sigma = 0.000016, epsilon = 0.000625
 h43bf                                  1      0.0000       0.00000       A     2.60020e-01     8.66352e-02    ;  uncertainty sigma = 0.000016, epsilon = 0.000625
 h44bf                                  1      0.0000       0.00000       A     2.60024e-01     8.67210e-02    ;  uncertainty sigma = 0.000008, epsilon = 0.000629
 h45bf                                  1      0.0000       0.00000       A     2.60024e-01     8.67210e-02    ;  uncertainty sigma = 0.000008, epsilon = 0.000629
 h46bf                                  1      0.0000       0.00000       A     2.42196e-01     8.67627e-02    ;  uncertainty sigma = 0.000011, epsilon = 0.000510
 h47bf                                  1      0.0000       0.00000       A     2.42196e-01     8.67627e-02    ;  uncertainty sigma = 0.000011, epsilon = 0.000510
 h48bf                                  1      0.0000       0.00000       A     2.42196e-01     8.67627e-02    ;  uncertainty sigma = 0.000011, epsilon = 0.000510
 h49bf                                  1      0.0000       0.00000       A     2.42196e-01     8.67627e-02    ;  uncertainty sigma = 0.000011, epsilon = 0.000510
 h50bf                                  1      0.0000       0.00000       A     2.42196e-01     8.67627e-02    ;  uncertainty sigma = 0.000011, epsilon = 0.000510
 h51bf                                  1      0.0000       0.00000       A     2.42196e-01     8.67627e-02    ;  uncertainty sigma = 0.000011, epsilon = 0.000510
 h52bf                                  1      0.0000       0.00000       A     2.42144e-01     8.68216e-02    ;  uncertainty sigma = 0.000035, epsilon = 0.001353
 c53bf                                  6      0.0000       0.00000       A     3.31521e-01     4.13130e-01    ;  uncertainty sigma = 0.000016, epsilon = 0.001179
 n54bf                                  7      0.0000       0.00000       A     3.38462e-01     3.92897e-01    ;  uncertainty sigma = 0.000021, epsilon = 0.001129
 c55bf                                  6      0.0000       0.00000       A     3.31563e-01     4.13299e-01    ;  uncertainty sigma = 0.000018, epsilon = 0.000646
 c56bf                                  6      0.0000       0.00000       A     3.31530e-01     4.13168e-01    ;  uncertainty sigma = 0.000011, epsilon = 0.000428
 n57bf                                  7      0.0000       0.00000       A     3.20586e-01     8.53708e-01    ;  uncertainty sigma = 0.000010, epsilon = 0.001245
 c58bf                                  6      0.0000       0.00000       A     3.31503e-01     4.13609e-01    ;  uncertainty sigma = 0.000014, epsilon = 0.001167
 c59bf                                  6      0.0000       0.00000       A     3.31532e-01     4.13265e-01    ;  uncertainty sigma = 0.000007, epsilon = 0.000771
 c60bf                                  6      0.0000       0.00000       A     3.31546e-01     4.12884e-01    ;  uncertainty sigma = 0.000011, epsilon = 0.000813
 c61bf                                  6      0.0000       0.00000       A     3.31528e-01     4.13140e-01    ;  uncertainty sigma = 0.000016, epsilon = 0.000695
 h62bf                                  1      0.0000       0.00000       A     2.53696e-01     6.70118e-02    ;  uncertainty sigma = 0.000020, epsilon = 0.000448
 h63bf                                  1      0.0000       0.00000       A     2.62533e-01     6.70852e-02    ;  uncertainty sigma = 0.000026, epsilon = 0.000653
 cl64bf                                17      0.0000       0.00000       A     3.46640e-01     1.10513e+00    ;  uncertainty sigma = 0.000022, epsilon = 0.001031
 h65bf                                  1      0.0000       0.00000       A     2.62528e-01     6.70362e-02    ;  uncertainty sigma = 0.000014, epsilon = 0.000674
 h66bf                                  1      0.0000       0.00000       A     2.53635e-01     6.66930e-02    ;  uncertainty sigma = 0.000036, epsilon = 0.000708

[ moleculetype ]
;name             nrexcl
 MOL                   3

[ atoms ]
;       nr            type      resi   res      atom      cgnr      charge          mass ; qtot
         1            c0bf         1   UNL        c0         1     0.70815       12.0110 ; qtot    0.708
         2            n1bf         1   UNL        n1         2    -0.56104       14.0070 ; qtot    0.147
         3            c2bf         1   UNL        c2         3     0.10225       12.0110 ; qtot    0.249
         4            o3bf         1   UNL        o3         4    -0.59643       15.9990 ; qtot   -0.347
         5            c4bf         1   UNL        c4         5     0.10478       12.0110 ; qtot   -0.242
         6            c5bf         1   UNL        c5         6    -0.07514       12.0110 ; qtot   -0.317
         7            c6bf         1   UNL        c6         7    -0.13250       12.0110 ; qtot   -0.450
         8            c7bf         1   UNL        c7         8    -0.06578       12.0110 ; qtot   -0.516
         9            c8bf         1   UNL        c8         9    -0.08745       12.0110 ; qtot   -0.603
        10            n9bf         1   UNL        n9        10    -0.55643       14.0070 ; qtot   -1.160
        11           c10bf         1   UNL       c10        11     0.59414       12.0110 ; qtot   -0.565
        12           c11bf         1   UNL       c11        12     0.37509       12.0110 ; qtot   -0.190
        13           o12bf         1   UNL       o12        13    -0.57698       15.9990 ; qtot   -0.767
        14           n13bf         1   UNL       n13        14    -0.60853       14.0070 ; qtot   -1.376
        15           s14bf         1   UNL       s14        15    -0.11954       32.0670 ; qtot   -1.495
        16           h15bf         1   UNL       h15        16     0.33240        1.0080 ; qtot   -1.163
        17           h16bf         1   UNL       h16        17     0.07698        1.0080 ; qtot   -1.086
        18           h17bf         1   UNL       h17        18     0.33735        1.0080 ; qtot   -0.749
        19           c18bf         1   UNL       c18        19     0.34886       12.0110 ; qtot   -0.400
        20           c19bf         1   UNL       c19        20    -0.15290       12.0110 ; qtot   -0.553
        21           c20bf         1   UNL       c20        21     0.24342       12.0110 ; qtot   -0.309
        22           n21bf         1   UNL       n21        22    -0.71265       14.0070 ; qtot   -1.022
        23           c22bf         1   UNL       c22        23     0.15896       12.0110 ; qtot   -0.863
        24           c23bf         1   UNL       c23        24    -0.11292       12.0110 ; qtot   -0.976
        25           c24bf         1   UNL       c24        25     0.14692       12.0110 ; qtot   -0.829
        26           h25bf         1   UNL       h25        26     0.05218        1.0080 ; qtot   -0.777
        27           h26bf         1   UNL       h26        27     0.05218        1.0080 ; qtot   -0.725
        28           h27bf         1   UNL       h27        28     0.04542        1.0080 ; qtot   -0.679
        29           h28bf         1   UNL       h28        29     0.04542        1.0080 ; qtot   -0.634
        30           h29bf         1   UNL       h29        30     0.06419        1.0080 ; qtot   -0.570
        31           h30bf         1   UNL       h30        31     0.06419        1.0080 ; qtot   -0.505
        32           h31bf         1   UNL       h31        32     0.03530        1.0080 ; qtot   -0.470
        33           h32bf         1   UNL       h32        33     0.03530        1.0080 ; qtot   -0.435
        34           h33bf         1   UNL       h33        34     0.03530        1.0080 ; qtot   -0.400
        35           c34bf         1   UNL       c34        35     0.67193       12.0110 ; qtot    0.272
        36           o35bf         1   UNL       o35        36    -0.60797       15.9990 ; qtot   -0.336
        37           n36bf         1   UNL       n36        37    -0.49029       14.0070 ; qtot   -0.826
        38           c37bf         1   UNL       c37        38     0.08466       12.0110 ; qtot   -0.741
        39           c38bf         1   UNL       c38        39     0.08466       12.0110 ; qtot   -0.657
        40           h39bf         1   UNL       h39        40     0.06150        1.0080 ; qtot   -0.595
        41           h40bf         1   UNL       h40        41     0.06150        1.0080 ; qtot   -0.534
        42           h41bf         1   UNL       h41        42     0.06422        1.0080 ; qtot   -0.469
        43           h42bf         1   UNL       h42        43     0.05208        1.0080 ; qtot   -0.417
        44           h43bf         1   UNL       h43        44     0.05208        1.0080 ; qtot   -0.365
        45           h44bf         1   UNL       h44        45     0.05526        1.0080 ; qtot   -0.310
        46           h45bf         1   UNL       h45        46     0.05526        1.0080 ; qtot   -0.255
        47           h46bf         1   UNL       h46        47     0.04383        1.0080 ; qtot   -0.211
        48           h47bf         1   UNL       h47        48     0.04383        1.0080 ; qtot   -0.167
        49           h48bf         1   UNL       h48        49     0.04383        1.0080 ; qtot   -0.123
        50           h49bf         1   UNL       h49        50     0.04383        1.0080 ; qtot   -0.079
        51           h50bf         1   UNL       h50        51     0.04383        1.0080 ; qtot   -0.035
        52           h51bf         1   UNL       h51        52     0.04383        1.0080 ; qtot    0.008
        53           h52bf         1   UNL       h52        53     0.07881        1.0080 ; qtot    0.087
        54           c53bf         1   UNL       c53        54    -0.00525       12.0110 ; qtot    0.082
        55           n54bf         1   UNL       n54        55    -0.26463       14.0070 ; qtot   -0.183
        56           c55bf         1   UNL       c55        56    -0.15946       12.0110 ; qtot   -0.342
        57           c56bf         1   UNL       c56        57    -0.02035       12.0110 ; qtot   -0.363
        58           n57bf         1   UNL       n57        58     0.01334       14.0070 ; qtot   -0.349
        59           c58bf         1   UNL       c58        59    -0.06504       12.0110 ; qtot   -0.414
        60           c59bf         1   UNL       c59        60    -0.15570       12.0110 ; qtot   -0.570
        61           c60bf         1   UNL       c60        61     0.03866       12.0110 ; qtot   -0.531
        62           c61bf         1   UNL       c61        62    -0.08268       12.0110 ; qtot   -0.614
        63           h62bf         1   UNL       h62        63     0.16897        1.0080 ; qtot   -0.445
        64           h63bf         1   UNL       h63        64     0.16549        1.0080 ; qtot   -0.279
        65          cl64bf         1   UNL      cl64        65    -0.09588       35.4530 ; qtot   -0.375
        66           h65bf         1   UNL       h65        66     0.17796        1.0080 ; qtot   -0.197
        67           h66bf         1   UNL       h66        67     0.19740        1.0080 ; qtot    0.000

[ bonds ]
;       ai        aj funct               r               k
         1         2     1        0.136603   302370.049512    ;  uncertainty r = 0.000109, k = 15.347086
         1         4     1        0.123690   707902.819434    ;  uncertainty r = 0.000112, k = 14.300610
         1        54     1        0.148515   264169.802637    ;  uncertainty r = 0.000175, k = 10.522139
         2         3     1        0.145771   242119.964307    ;  uncertainty r = 0.000067, k = 14.226293
         2        16     1        0.101539   412509.635889    ;  uncertainty r = 0.000069, k = 3.485816
         3         5     1        0.154139   193161.060938    ;  uncertainty r = 0.000236, k = 7.190305
         3         9     1        0.153518   200048.049048    ;  uncertainty r = 0.000083, k = 7.067612
         3        17     1        0.109367   306086.516113    ;  uncertainty r = 0.000048, k = 3.200914
         5         6     1        0.153459   198491.779297    ;  uncertainty r = 0.000127, k = 5.264538
         5        10     1        0.145729   238727.461475    ;  uncertainty r = 0.000067, k = 15.790014
         5        53     1        0.109360   306487.525342    ;  uncertainty r = 0.000054, k = 3.376958
         6         7     1        0.153721   199006.850024    ;  uncertainty r = 0.000168, k = 6.848027
         6        40     1        0.109526   310433.851465    ;  uncertainty r = 0.000043, k = 0.875064
         6        41     1        0.109526   310433.851465    ;  uncertainty r = 0.000043, k = 0.875064
         7         8     1        0.153975   202217.337109    ;  uncertainty r = 0.000087, k = 2.573046
         7        35     1        0.153156   206143.680444    ;  uncertainty r = 0.000070, k = 12.443492
         7        42     1        0.109633   309151.735352    ;  uncertainty r = 0.000051, k = 6.503762
         8         9     1        0.153315   207912.240186    ;  uncertainty r = 0.000063, k = 5.403351
         8        43     1        0.109602   308125.501074    ;  uncertainty r = 0.000021, k = 1.819146
         8        44     1        0.109602   308125.501074    ;  uncertainty r = 0.000021, k = 1.819146
         9        45     1        0.109620   309910.953613    ;  uncertainty r = 0.000024, k = 1.009960
         9        46     1        0.109620   309910.953613    ;  uncertainty r = 0.000024, k = 1.009960
        10        11     1        0.136254   291452.475586    ;  uncertainty r = 0.000129, k = 17.867731
        10        18     1        0.101616   410581.507520    ;  uncertainty r = 0.000093, k = 3.750123
        11        12     1        0.147883   259563.418848    ;  uncertainty r = 0.000125, k = 27.680344
        11        13     1        0.123538   703630.001367    ;  uncertainty r = 0.000115, k = 12.098945
        12        14     1        0.130310   434161.095312    ;  uncertainty r = 0.000085, k = 15.053236
        12        15     1        0.175563   155788.944214    ;  uncertainty r = 0.000188, k = 10.470577
        14        19     1        0.137602   299978.345996    ;  uncertainty r = 0.000211, k = 8.739575
        15        20     1        0.173396   184345.625244    ;  uncertainty r = 0.000110, k = 8.530767
        19        20     1        0.137286   397473.794482    ;  uncertainty r = 0.000034, k = 9.608965
        19        24     1        0.149948   244144.622949    ;  uncertainty r = 0.000108, k = 7.193396
        20        21     1        0.150719   237383.826465    ;  uncertainty r = 0.000089, k = 11.691948
        21        22     1        0.146397   258698.068359    ;  uncertainty r = 0.000045, k = 12.802743
        21        26     1        0.110180   303656.992139    ;  uncertainty r = 0.000048, k = 3.959665
        21        27     1        0.110180   303656.992139    ;  uncertainty r = 0.000048, k = 3.959665
        22        23     1        0.146774   246527.975830    ;  uncertainty r = 0.000088, k = 8.191406
        22        25     1        0.145874   240551.449512    ;  uncertainty r = 0.000055, k = 4.989744
        23        24     1        0.153862   211171.503149    ;  uncertainty r = 0.000061, k = 10.297044
        23        28     1        0.109933   305388.127246    ;  uncertainty r = 0.000023, k = 3.768152
        23        29     1        0.109933   305388.127246    ;  uncertainty r = 0.000023, k = 3.768152
        24        30     1        0.109729   310887.467139    ;  uncertainty r = 0.000009, k = 2.383701
        24        31     1        0.109729   310887.467139    ;  uncertainty r = 0.000009, k = 2.383701
        25        32     1        0.109858   306972.960254    ;  uncertainty r = 0.000009, k = 1.032628
        25        33     1        0.109858   306972.960254    ;  uncertainty r = 0.000009, k = 1.032628
        25        34     1        0.109858   306972.960254    ;  uncertainty r = 0.000009, k = 1.032628
        35        36     1        0.123614   736987.492969    ;  uncertainty r = 0.000035, k = 11.451192
        35        37     1        0.137582   365085.461719    ;  uncertainty r = 0.000056, k = 20.353979
        37        38     1        0.145904   250764.556738    ;  uncertainty r = 0.000013, k = 6.211512
        37        39     1        0.145904   250764.556738    ;  uncertainty r = 0.000013, k = 6.211512
        38        47     1        0.109437   311080.731982    ;  uncertainty r = 0.000014, k = 1.257584
        38        48     1        0.109437   311080.731982    ;  uncertainty r = 0.000014, k = 1.257584
        38        49     1        0.109437   311080.731982    ;  uncertainty r = 0.000014, k = 1.257584
        39        50     1        0.109437   311080.731982    ;  uncertainty r = 0.000014, k = 1.257584
        39        51     1        0.109437   311080.731982    ;  uncertainty r = 0.000014, k = 1.257584
        39        52     1        0.109437   311080.731982    ;  uncertainty r = 0.000014, k = 1.257584
        54        55     1        0.137317   251049.116748    ;  uncertainty r = 0.000056, k = 23.500678
        54        56     1        0.138869   407104.093799    ;  uncertainty r = 0.000059, k = 5.760217
        55        57     1        0.133209   491547.985352    ;  uncertainty r = 0.000145, k = 7.511909
        56        58     1        0.137923   343156.516064    ;  uncertainty r = 0.000087, k = 7.336627
        56        67     1        0.108108   344124.730029    ;  uncertainty r = 0.000035, k = 5.489618
        57        58     1        0.140924   251916.280371    ;  uncertainty r = 0.000091, k = 5.029620
        57        62     1        0.141382   296015.522900    ;  uncertainty r = 0.000094, k = 5.850402
        58        59     1        0.137233   330939.205420    ;  uncertainty r = 0.000047, k = 7.725449
        59        60     1        0.136391   449185.240723    ;  uncertainty r = 0.000032, k = 2.749252
        59        63     1        0.108547   336592.763916    ;  uncertainty r = 0.000020, k = 2.557596
        60        61     1        0.142722   247063.514551    ;  uncertainty r = 0.000114, k = 6.770232
        60        64     1        0.108532   339294.692236    ;  uncertainty r = 0.000042, k = 1.932773
        61        62     1        0.137017   419511.936816    ;  uncertainty r = 0.000101, k = 11.332999
        61        65     1        0.175103   197002.531689    ;  uncertainty r = 0.000063, k = 5.549337
        62        66     1        0.108607   340080.009424    ;  uncertainty r = 0.000033, k = 2.279609

[ angles ]
;       ai        aj        ak funct           theta             cth
         1         2         3     1      116.526108      442.167994    ;  uncertainty theta = 0.006171, k = 0.161369
         1         2        16     1      116.096481      345.259516    ;  uncertainty theta = 0.005764, k = 0.174696
         1        54        55     1      120.106972      390.710432    ;  uncertainty theta = 0.007821, k = 0.528184
         1        54        56     1      125.151955      301.065697    ;  uncertainty theta = 0.006520, k = 0.444781
         2         1         4     1      124.375412      806.767849    ;  uncertainty theta = 0.003164, k = 0.091142
         2         1        54     1      114.396156      455.318744    ;  uncertainty theta = 0.003865, k = 0.118339
         2         3         5     1      109.243057      580.790159    ;  uncertainty theta = 0.004638, k = 0.166067
         2         3         9     1      110.800125      634.632792    ;  uncertainty theta = 0.001685, k = 0.066787
         2         3        17     1      105.322510      445.614068    ;  uncertainty theta = 0.004129, k = 0.139338
         3         2        16     1      112.552612      317.356777    ;  uncertainty theta = 0.000558, k = 0.229515
         3         5         6     1      109.667007      544.088545    ;  uncertainty theta = 0.003126, k = 0.180277
         3         5        10     1      109.139542      584.355842    ;  uncertainty theta = 0.004639, k = 0.176239
         3         5        53     1      107.723289      384.022454    ;  uncertainty theta = 0.001789, k = 0.083417
         3         9         8     1      109.781250      550.882182    ;  uncertainty theta = 0.003398, k = 0.118498
         3         9        45     1      107.485580      382.775732    ;  uncertainty theta = 0.000849, k = 0.034559
         3         9        46     1      107.485580      382.775732    ;  uncertainty theta = 0.000849, k = 0.034559
         4         1        54     1      122.492477      508.031487    ;  uncertainty theta = 0.004364, k = 0.168500
         5         3         9     1      109.366600      551.752806    ;  uncertainty theta = 0.001151, k = 0.237879
         5         3        17     1      107.452553      381.847714    ;  uncertainty theta = 0.002532, k = 0.087792
         5         6         7     1      110.155777      537.181906    ;  uncertainty theta = 0.003354, k = 0.119115
         5         6        40     1      107.460854      385.063155    ;  uncertainty theta = 0.000653, k = 0.058631
         5         6        41     1      107.460854      385.063155    ;  uncertainty theta = 0.000653, k = 0.058631
         5        10        11     1      116.256470      438.591490    ;  uncertainty theta = 0.006636, k = 0.182671
         5        10        18     1      112.697777      315.756941    ;  uncertainty theta = 0.001526, k = 0.296885
         6         5        10     1      110.224083      630.160670    ;  uncertainty theta = 0.002121, k = 0.087819
         6         5        53     1      108.606544      408.575938    ;  uncertainty theta = 0.001745, k = 0.034990
         6         7         8     1      109.900391      583.567575    ;  uncertainty theta = 0.002330, k = 0.083135
         6         7        35     1      108.569168      489.144113    ;  uncertainty theta = 0.003757, k = 0.073146
         6         7        42     1      107.332260      401.082169    ;  uncertainty theta = 0.002516, k = 0.077903
         7         6        40     1      108.676857      396.198101    ;  uncertainty theta = 0.000795, k = 0.026396
         7         6        41     1      108.676857      396.198101    ;  uncertainty theta = 0.000795, k = 0.026396
         7         8         9     1      109.786987      580.835360    ;  uncertainty theta = 0.001913, k = 0.141340
         7         8        43     1      108.292625      386.614311    ;  uncertainty theta = 0.000735, k = 0.019139
         7         8        44     1      108.292625      386.614311    ;  uncertainty theta = 0.000735, k = 0.019139
         7        35        36     1      123.648819      547.647652    ;  uncertainty theta = 0.003749, k = 0.250532
         7        35        37     1      114.135170      399.306701    ;  uncertainty theta = 0.002339, k = 0.216014
         8         7        35     1      108.943726      496.415422    ;  uncertainty theta = 0.001979, k = 0.055108
         8         7        42     1      107.694107      403.879791    ;  uncertainty theta = 0.001685, k = 0.082263
         8         9        45     1      108.763489      400.577939    ;  uncertainty theta = 0.001541, k = 0.036918
         8         9        46     1      108.763489      400.577939    ;  uncertainty theta = 0.001541, k = 0.036918
         9         3        17     1      108.899765      410.826108    ;  uncertainty theta = 0.001556, k = 0.072626
         9         8        43     1      108.482079      402.739687    ;  uncertainty theta = 0.000859, k = 0.036544
         9         8        44     1      108.482079      402.739687    ;  uncertainty theta = 0.000859, k = 0.036544
        10         5        53     1      105.246643      446.517028    ;  uncertainty theta = 0.004204, k = 0.177955
        10        11        12     1      113.070839      435.784547    ;  uncertainty theta = 0.006920, k = 0.140238
        10        11        13     1      124.950012      804.911939    ;  uncertainty theta = 0.003994, k = 0.055585
        11        10        18     1      116.250000      347.593576    ;  uncertainty theta = 0.004441, k = 0.081627
        11        12        14     1      122.197128      370.860213    ;  uncertainty theta = 0.005964, k = 0.255742
        11        12        15     1      118.123451      287.405674    ;  uncertainty theta = 0.005808, k = 0.204925
        12        11        13     1      120.002197      453.227350    ;  uncertainty theta = 0.007890, k = 0.121396
        12        14        19     1      111.845421      637.059456    ;  uncertainty theta = 0.004719, k = 0.108197
        12        15        20     1       89.170425     1132.634133    ;  uncertainty theta = 0.004755, k = 0.314956
        14        12        15     1      116.136452      646.965173    ;  uncertainty theta = 0.002239, k = 0.246117
        14        19        20     1      115.716957      690.992937    ;  uncertainty theta = 0.003156, k = 0.158093
        14        19        24     1      124.040390      433.932787    ;  uncertainty theta = 0.004363, k = 0.201750
        15        20        19     1      109.672325      507.238336    ;  uncertainty theta = 0.002750, k = 0.124654
        15        20        21     1      124.458923      318.004972    ;  uncertainty theta = 0.003631, k = 0.249957
        19        20        21     1      122.449425      322.713122    ;  uncertainty theta = 0.004108, k = 0.373686
        19        24        23     1      106.939438      596.797522    ;  uncertainty theta = 0.003584, k = 0.044131
        19        24        30     1      108.548073      392.911220    ;  uncertainty theta = 0.001454, k = 0.086868
        19        24        31     1      108.548073      392.911220    ;  uncertainty theta = 0.001454, k = 0.086868
        20        19        24     1      120.498146      325.489963    ;  uncertainty theta = 0.004995, k = 0.174544
        20        21        22     1      109.701111      686.046080    ;  uncertainty theta = 0.001850, k = 0.201796
        20        21        26     1      108.925659      409.463193    ;  uncertainty theta = 0.001395, k = 0.154098
        20        21        27     1      108.925659      409.463193    ;  uncertainty theta = 0.001395, k = 0.154098
        21        22        23     1      108.084244      491.834927    ;  uncertainty theta = 0.003315, k = 0.091086
        21        22        25     1      107.580322      510.743273    ;  uncertainty theta = 0.002764, k = 0.057722
        22        21        26     1      109.358154      448.409487    ;  uncertainty theta = 0.001850, k = 0.074310
        22        21        27     1      109.358154      448.409487    ;  uncertainty theta = 0.001850, k = 0.074310
        22        23        24     1      112.487526      700.788206    ;  uncertainty theta = 0.002677, k = 0.118016
        22        23        28     1      108.920166      453.721493    ;  uncertainty theta = 0.001526, k = 0.064884
        22        23        29     1      108.920166      453.721493    ;  uncertainty theta = 0.001526, k = 0.064884
        22        25        32     1      110.438461      450.024231    ;  uncertainty theta = 0.001821, k = 0.029766
        22        25        33     1      110.438461      450.024231    ;  uncertainty theta = 0.001821, k = 0.029766
        22        25        34     1      110.438461      450.024231    ;  uncertainty theta = 0.001821, k = 0.029766
        23        22        25     1      108.245483      523.945384    ;  uncertainty theta = 0.002945, k = 0.105030
        23        24        30     1      108.704140      394.566535    ;  uncertainty theta = 0.001154, k = 0.056791
        23        24        31     1      108.704140      394.566535    ;  uncertainty theta = 0.001154, k = 0.056791
        24        23        28     1      108.660522      413.983038    ;  uncertainty theta = 0.001451, k = 0.079858
        24        23        29     1      108.660522      413.983038    ;  uncertainty theta = 0.001451, k = 0.079858
        26        21        27     1      104.710770      316.430897    ;  uncertainty theta = 0.002647, k = 0.058044
        28        23        29     1      105.686386      320.062785    ;  uncertainty theta = 0.001993, k = 0.069558
        30        24        31     1      105.018166      307.701164    ;  uncertainty theta = 0.001306, k = 0.028790
        32        25        33     1      106.707680      321.292396    ;  uncertainty theta = 0.002211, k = 0.028957
        32        25        34     1      106.707680      321.292396    ;  uncertainty theta = 0.002211, k = 0.028957
        33        25        34     1      106.707680      321.292396    ;  uncertainty theta = 0.002211, k = 0.028957
        35         7        42     1      106.313622      362.200292    ;  uncertainty theta = 0.002423, k = 0.146630
        35        37        38     1      116.622971      385.561065    ;  uncertainty theta = 0.001770, k = 0.124804
        35        37        39     1      116.622971      385.561065    ;  uncertainty theta = 0.001770, k = 0.124804
        36        35        37     1      123.396584      724.695474    ;  uncertainty theta = 0.001503, k = 0.174408
        37        38        47     1      109.352982      479.364486    ;  uncertainty theta = 0.001224, k = 0.042687
        37        38        48     1      109.352982      479.364486    ;  uncertainty theta = 0.001224, k = 0.042687
        37        38        49     1      109.352982      479.364486    ;  uncertainty theta = 0.001224, k = 0.042687
        37        39        50     1      109.352982      479.364486    ;  uncertainty theta = 0.001224, k = 0.042687
        37        39        51     1      109.352982      479.364486    ;  uncertainty theta = 0.001224, k = 0.042687
        37        39        52     1      109.352982      479.364486    ;  uncertainty theta = 0.001224, k = 0.042687
        38        37        39     1      118.428368      428.731644    ;  uncertainty theta = 0.003391, k = 0.223109
        40         6        41     1      105.326035      326.596294    ;  uncertainty theta = 0.002223, k = 0.051835
        43         8        44     1      104.655197      318.642921    ;  uncertainty theta = 0.002537, k = 0.034949
        45         9        46     1      105.089188      316.666285    ;  uncertainty theta = 0.002339, k = 0.045277
        47        38        48     1      106.824196      329.099123    ;  uncertainty theta = 0.001131, k = 0.027019
        47        38        49     1      106.824196      329.099123    ;  uncertainty theta = 0.001131, k = 0.027019
        48        38        49     1      106.824196      329.099123    ;  uncertainty theta = 0.001131, k = 0.027019
        50        39        51     1      106.824196      329.099123    ;  uncertainty theta = 0.001131, k = 0.027019
        50        39        52     1      106.824196      329.099123    ;  uncertainty theta = 0.001131, k = 0.027019
        51        39        52     1      106.824196      329.099123    ;  uncertainty theta = 0.001131, k = 0.027019
        54        55        57     1      106.695114      845.854310    ;  uncertainty theta = 0.004358, k = 0.067603
        54        56        58     1      106.222549      801.540530    ;  uncertainty theta = 0.004699, k = 0.085138
        54        56        67     1      131.368210      228.281583    ;  uncertainty theta = 0.008904, k = 0.172996
        55        54        56     1      112.465431      776.376965    ;  uncertainty theta = 0.003582, k = 0.150621
        55        57        58     1      113.766441      793.803999    ;  uncertainty theta = 0.005723, k = 0.116825
        55        57        62     1      130.757904      381.959726    ;  uncertainty theta = 0.003300, k = 0.109695
        56        58        57     1      106.600098      811.748032    ;  uncertainty theta = 0.002763, k = 0.152793
        56        58        59     1      128.511322      429.611398    ;  uncertainty theta = 0.002779, k = 0.287087
        57        58        59     1      117.104027      429.140493    ;  uncertainty theta = 0.007012, k = 0.107157
        57        62        61     1      117.012466      501.450000    ;  uncertainty theta = 0.004844, k = 0.152285
        57        62        66     1      118.749855      273.059628    ;  uncertainty theta = 0.005714, k = 0.116723
        58        56        67     1      119.701828      276.886843    ;  uncertainty theta = 0.007705, k = 0.130315
        58        57        62     1      112.594215      377.957646    ;  uncertainty theta = 0.008585, k = 0.087140
        58        59        60     1      120.283020      566.386847    ;  uncertainty theta = 0.001532, k = 0.130428
        58        59        63     1      116.695084      314.084228    ;  uncertainty theta = 0.008100, k = 0.095291
        59        60        61     1      122.328491      487.771909    ;  uncertainty theta = 0.004245, k = 0.064165
        59        60        64     1      119.223106      264.085281    ;  uncertainty theta = 0.002169, k = 0.066313
        60        59        63     1      124.272095      259.578716    ;  uncertainty theta = 0.006312, k = 0.076668
        60        61        62     1      124.522263      427.021296    ;  uncertainty theta = 0.003373, k = 0.167481
        60        61        65     1      117.694237      438.038133    ;  uncertainty theta = 0.003207, k = 0.186510
        61        60        64     1      120.024498      279.147515    ;  uncertainty theta = 0.001222, k = 0.088941
        61        62        66     1      123.267166      272.013213    ;  uncertainty theta = 0.005437, k = 0.145026
        62        61        65     1      121.183800      439.300177    ;  uncertainty theta = 0.001184, k = 0.204981

[ dihedrals ] ; propers for gromacs 4.5 or higher, use funct 9
;       ai        aj        ak        al funct           phase               k        pn
         1         2         3         5     9        0.000000        0.770929         1    ;  uncertainty k = 0.410107
         1         2         3         5     9      180.000000        0.222208         2    ;  uncertainty k = 0.222903
         1         2         3         5     9        0.000000       -0.087385         3    ;  uncertainty k = 0.054041
         1         2         3         5     9      180.000000        0.489848         4    ;  uncertainty k = 0.272736
         1         2         3         9     9        0.000000        0.464280         1    ;  uncertainty k = 0.498565
         1         2         3         9     9      180.000000        0.155233         2    ;  uncertainty k = 0.360225
         1         2         3         9     9        0.000000        0.241480         3    ;  uncertainty k = 0.051481
         1         2         3         9     9      180.000000        0.381562         4    ;  uncertainty k = 0.166849
         1         2         3        17     9        0.000000        1.091396         1    ;  uncertainty k = 0.330743
         1         2         3        17     9      180.000000       -0.393294         2    ;  uncertainty k = 0.286830
         1         2         3        17     9        0.000000        0.107296         3    ;  uncertainty k = 0.124134
         1         2         3        17     9      180.000000        0.173825         4    ;  uncertainty k = 0.077518
         1        54        55        57     9        0.000000        0.775969         1    ;  uncertainty k = 1.547733
         1        54        55        57     9      180.000000       13.784541         2    ;  uncertainty k = 0.362176
         1        54        55        57     9        0.000000        2.130073         3    ;  uncertainty k = 0.700937
         1        54        55        57     9      180.000000        1.118539         4    ;  uncertainty k = 0.189947
         1        54        56        58     9        0.000000        0.752472         1    ;  uncertainty k = 1.192934
         1        54        56        58     9      180.000000       14.060734         2    ;  uncertainty k = 0.213536
         1        54        56        58     9        0.000000        1.918960         3    ;  uncertainty k = 0.445645
         1        54        56        58     9      180.000000        0.984474         4    ;  uncertainty k = 0.143255
         1        54        56        67     9        0.000000       -0.283898         1    ;  uncertainty k = 1.111037
         1        54        56        67     9      180.000000        6.784661         2    ;  uncertainty k = 0.923435
         1        54        56        67     9        0.000000        1.377554         3    ;  uncertainty k = 0.424751
         1        54        56        67     9      180.000000        0.374879         4    ;  uncertainty k = 0.213123
         2         1        54        55     9        0.000000        0.613760         1    ;  uncertainty k = 0.463042
         2         1        54        55     9      180.000000        3.397645         2    ;  uncertainty k = 0.447796
         2         1        54        55     9        0.000000       -0.192199         3    ;  uncertainty k = 0.255170
         2         1        54        55     9      180.000000       -0.256693         4    ;  uncertainty k = 0.140737
         2         1        54        56     9        0.000000        2.053122         1    ;  uncertainty k = 0.813156
         2         1        54        56     9      180.000000        2.708229         2    ;  uncertainty k = 0.253157
         2         1        54        56     9        0.000000        1.139261         3    ;  uncertainty k = 0.331095
         2         1        54        56     9      180.000000       -0.427578         4    ;  uncertainty k = 0.170552
         2         3         5         6     9        0.000000       -2.761779         1    ;  uncertainty k = 0.654378
         2         3         5         6     9      180.000000       -0.267746         2    ;  uncertainty k = 0.382530
         2         3         5         6     9        0.000000        0.532216         3    ;  uncertainty k = 0.197775
         2         3         5         6     9      180.000000       -0.057728         4    ;  uncertainty k = 0.149393
         2         3         5        10     9        0.000000        0.262717         1    ;  uncertainty k = 0.999621
         2         3         5        10     9      180.000000       -1.196966         2    ;  uncertainty k = 0.732421
         2         3         5        10     9        0.000000        0.372918         3    ;  uncertainty k = 0.390709
         2         3         5        10     9      180.000000       -0.039746         4    ;  uncertainty k = 0.380177
         2         3         5        53     9        0.000000        0.024980         1    ;  uncertainty k = 1.121062
         2         3         5        53     9      180.000000       -1.391584         2    ;  uncertainty k = 0.508816
         2         3         5        53     9        0.000000        0.492915         3    ;  uncertainty k = 0.254418
         2         3         5        53     9      180.000000       -0.267050         4    ;  uncertainty k = 0.116885
         2         3         9         8     9        0.000000       -4.226748         1    ;  uncertainty k = 0.752487
         2         3         9         8     9      180.000000        0.280944         2    ;  uncertainty k = 0.144720
         2         3         9         8     9        0.000000        0.848851         3    ;  uncertainty k = 0.100555
         2         3         9         8     9      180.000000       -0.145046         4    ;  uncertainty k = 0.112240
         2         3         9        45     9        0.000000       -0.447933         1    ;  uncertainty k = 0.621495
         2         3         9        45     9      180.000000       -1.364856         2    ;  uncertainty k = 0.417969
         2         3         9        45     9        0.000000        0.938122         3    ;  uncertainty k = 0.113103
         2         3         9        45     9      180.000000       -0.304280         4    ;  uncertainty k = 0.069619
         2         3         9        46     9        0.000000       -0.447933         1    ;  uncertainty k = 0.621495
         2         3         9        46     9      180.000000       -1.364856         2    ;  uncertainty k = 0.417969
         2         3         9        46     9        0.000000        0.938122         3    ;  uncertainty k = 0.113103
         2         3         9        46     9      180.000000       -0.304280         4    ;  uncertainty k = 0.069619
         3         2         1         4     9        0.000000        4.276587         1    ;  uncertainty k = 1.482144
         3         2         1         4     9      180.000000       13.272019         2    ;  uncertainty k = 0.147427
         3         2         1         4     9        0.000000        0.410543         3    ;  uncertainty k = 0.218151
         3         2         1         4     9      180.000000       -0.304185         4    ;  uncertainty k = 0.210541
         3         2         1        54     9        0.000000        3.485627         1    ;  uncertainty k = 2.049277
         3         2         1        54     9      180.000000       13.698714         2    ;  uncertainty k = 0.206694
         3         2         1        54     9        0.000000        1.323725         3    ;  uncertainty k = 0.323388
         3         2         1        54     9      180.000000       -1.511832         4    ;  uncertainty k = 0.424732
         3         5         6         7     9        0.000000       -1.441228         1    ;  uncertainty k = 2.707289
         3         5         6         7     9      180.000000       -1.360690         2    ;  uncertainty k = 1.252263
         3         5         6         7     9        0.000000        0.525245         3    ;  uncertainty k = 0.493098
         3         5         6         7     9      180.000000       -1.218763         4    ;  uncertainty k = 0.207221
         3         5         6        40     9        0.000000       -0.886561         1    ;  uncertainty k = 0.513190
         3         5         6        40     9      180.000000       -0.614553         2    ;  uncertainty k = 0.170864
         3         5         6        40     9        0.000000        0.125433         3    ;  uncertainty k = 0.062892
         3         5         6        40     9      180.000000       -0.135793         4    ;  uncertainty k = 0.112685
         3         5         6        41     9        0.000000       -0.886561         1    ;  uncertainty k = 0.513190
         3         5         6        41     9      180.000000       -0.614553         2    ;  uncertainty k = 0.170864
         3         5         6        41     9        0.000000        0.125433         3    ;  uncertainty k = 0.062892
         3         5         6        41     9      180.000000       -0.135793         4    ;  uncertainty k = 0.112685
         3         5        10        11     9        0.000000        0.799709         1    ;  uncertainty k = 0.606926
         3         5        10        11     9      180.000000        0.226262         2    ;  uncertainty k = 0.176702
         3         5        10        11     9        0.000000       -0.089394         3    ;  uncertainty k = 0.112175
         3         5        10        11     9      180.000000        0.456472         4    ;  uncertainty k = 0.211380
         3         5        10        18     9        0.000000        2.700208         1    ;  uncertainty k = 0.607690
         3         5        10        18     9      180.000000       -1.551770         2    ;  uncertainty k = 0.405634
         3         5        10        18     9        0.000000        0.520296         3    ;  uncertainty k = 0.249721
         3         5        10        18     9      180.000000        0.165312         4    ;  uncertainty k = 0.147787
         3         9         8         7     9        0.000000       -5.572605         1    ;  uncertainty k = 0.740863
         3         9         8         7     9      180.000000       -1.073246         2    ;  uncertainty k = 0.648540
         3         9         8         7     9        0.000000        1.432368         3    ;  uncertainty k = 0.144858
         3         9         8         7     9      180.000000       -1.200678         4    ;  uncertainty k = 0.214907
         3         9         8        43     9        0.000000       -1.162658         1    ;  uncertainty k = 0.422204
         3         9         8        43     9      180.000000       -0.677948         2    ;  uncertainty k = 0.276278
         3         9         8        43     9        0.000000        0.405252         3    ;  uncertainty k = 0.184714
         3         9         8        43     9      180.000000       -0.085340         4    ;  uncertainty k = 0.032159
         3         9         8        44     9        0.000000       -1.162658         1    ;  uncertainty k = 0.422204
         3         9         8        44     9      180.000000       -0.677948         2    ;  uncertainty k = 0.276278
         3         9         8        44     9        0.000000        0.405252         3    ;  uncertainty k = 0.184714
         3         9         8        44     9      180.000000       -0.085340         4    ;  uncertainty k = 0.032159
         4         1         2        16     9        0.000000        2.195483         1    ;  uncertainty k = 1.043357
         4         1         2        16     9      180.000000       14.281020         2    ;  uncertainty k = 0.294522
         4         1         2        16     9        0.000000        1.834151         3    ;  uncertainty k = 0.265177
         4         1         2        16     9      180.000000       -0.473634         4    ;  uncertainty k = 0.319833
         4         1        54        55     9        0.000000       -0.440189         1    ;  uncertainty k = 0.619234
         4         1        54        55     9      180.000000        4.433951         2    ;  uncertainty k = 0.336781
         4         1        54        55     9        0.000000        0.762893         3    ;  uncertainty k = 0.145714
         4         1        54        55     9      180.000000        0.256994         4    ;  uncertainty k = 0.058424
         4         1        54        56     9        0.000000       -0.428138         1    ;  uncertainty k = 1.171492
         4         1        54        56     9      180.000000        3.098373         2    ;  uncertainty k = 0.378570
         4         1        54        56     9        0.000000        0.347833         3    ;  uncertainty k = 0.235881
         4         1        54        56     9      180.000000        0.216030         4    ;  uncertainty k = 0.143756
         5         3         2        16     9        0.000000        2.655322         1    ;  uncertainty k = 0.568937
         5         3         2        16     9      180.000000       -1.600922         2    ;  uncertainty k = 0.336340
         5         3         2        16     9        0.000000        0.507007         3    ;  uncertainty k = 0.242177
         5         3         2        16     9      180.000000        0.137838         4    ;  uncertainty k = 0.138880
         5         3         9         8     9        0.000000       -4.804021         1    ;  uncertainty k = 1.427190
         5         3         9         8     9      180.000000        0.196826         2    ;  uncertainty k = 0.731816
         5         3         9         8     9        0.000000        0.932207         3    ;  uncertainty k = 0.332731
         5         3         9         8     9      180.000000       -1.204286         4    ;  uncertainty k = 0.156444
         5         3         9        45     9        0.000000       -0.737756         1    ;  uncertainty k = 0.625633
         5         3         9        45     9      180.000000       -0.674181         2    ;  uncertainty k = 0.266266
         5         3         9        45     9        0.000000        0.105382         3    ;  uncertainty k = 0.044569
         5         3         9        45     9      180.000000       -0.123167         4    ;  uncertainty k = 0.092394
         5         3         9        46     9        0.000000       -0.737756         1    ;  uncertainty k = 0.625633
         5         3         9        46     9      180.000000       -0.674181         2    ;  uncertainty k = 0.266266
         5         3         9        46     9        0.000000        0.105382         3    ;  uncertainty k = 0.044569
         5         3         9        46     9      180.000000       -0.123167         4    ;  uncertainty k = 0.092394
         5         6         7         8     9        0.000000       -3.685858         1    ;  uncertainty k = 1.543474
         5         6         7         8     9      180.000000       -0.285065         2    ;  uncertainty k = 0.572018
         5         6         7         8     9        0.000000        0.981156         3    ;  uncertainty k = 0.134158
         5         6         7         8     9      180.000000       -1.148830         4    ;  uncertainty k = 0.219793
         5         6         7        35     9        0.000000       -1.988880         1    ;  uncertainty k = 0.819118
         5         6         7        35     9      180.000000       -0.959087         2    ;  uncertainty k = 0.272882
         5         6         7        35     9        0.000000        0.443360         3    ;  uncertainty k = 0.318150
         5         6         7        35     9      180.000000        0.183680         4    ;  uncertainty k = 0.094585
         5         6         7        42     9        0.000000       -1.930129         1    ;  uncertainty k = 0.461178
         5         6         7        42     9      180.000000       -0.446539         2    ;  uncertainty k = 0.219585
         5         6         7        42     9        0.000000        0.087588         3    ;  uncertainty k = 0.087001
         5         6         7        42     9      180.000000       -0.164536         4    ;  uncertainty k = 0.141862
         5        10        11        12     9        0.000000        3.955843         1    ;  uncertainty k = 1.375018
         5        10        11        12     9      180.000000       12.511310         2    ;  uncertainty k = 0.157161
         5        10        11        12     9        0.000000        1.265290         3    ;  uncertainty k = 0.258416
         5        10        11        12     9      180.000000       -1.434391         4    ;  uncertainty k = 0.492912
         5        10        11        13     9        0.000000        4.208886         1    ;  uncertainty k = 1.051963
         5        10        11        13     9      180.000000       13.258813         2    ;  uncertainty k = 0.102362
         5        10        11        13     9        0.000000        0.423146         3    ;  uncertainty k = 0.283109
         5        10        11        13     9      180.000000       -0.345444         4    ;  uncertainty k = 0.133898
         6         5         3         9     9        0.000000       -1.518586         1    ;  uncertainty k = 2.482397
         6         5         3         9     9      180.000000        0.526137         2    ;  uncertainty k = 0.958976
         6         5         3         9     9        0.000000        0.430356         3    ;  uncertainty k = 0.503265
         6         5         3         9     9      180.000000       -1.115433         4    ;  uncertainty k = 0.261448
         6         5         3        17     9        0.000000       -1.273223         1    ;  uncertainty k = 0.307610
         6         5         3        17     9      180.000000       -0.212996         2    ;  uncertainty k = 0.243089
         6         5         3        17     9        0.000000       -0.233816         3    ;  uncertainty k = 0.061311
         6         5         3        17     9      180.000000       -0.144419         4    ;  uncertainty k = 0.051286
         6         5        10        11     9        0.000000        0.365179         1    ;  uncertainty k = 0.381956
         6         5        10        11     9      180.000000        0.212131         2    ;  uncertainty k = 0.301001
         6         5        10        11     9        0.000000        0.181087         3    ;  uncertainty k = 0.072733
         6         5        10        11     9      180.000000        0.343018         4    ;  uncertainty k = 0.126684
         6         5        10        18     9        0.000000        0.944364         1    ;  uncertainty k = 0.463017
         6         5        10        18     9      180.000000       -0.511752         2    ;  uncertainty k = 0.348976
         6         5        10        18     9        0.000000        0.327111         3    ;  uncertainty k = 0.178626
         6         5        10        18     9      180.000000        0.059980         4    ;  uncertainty k = 0.085878
         6         7         8         9     9        0.000000       -5.487464         1    ;  uncertainty k = 0.622101
         6         7         8         9     9      180.000000        0.630063         2    ;  uncertainty k = 0.545359
         6         7         8         9     9        0.000000        1.367198         3    ;  uncertainty k = 0.173804
         6         7         8         9     9      180.000000       -1.032851         4    ;  uncertainty k = 0.273094
         6         7         8        43     9        0.000000       -1.226844         1    ;  uncertainty k = 0.266748
         6         7         8        43     9      180.000000       -0.345485         2    ;  uncertainty k = 0.101300
         6         7         8        43     9        0.000000        0.394880         3    ;  uncertainty k = 0.108227
         6         7         8        43     9      180.000000       -0.070781         4    ;  uncertainty k = 0.048007
         6         7         8        44     9        0.000000       -1.226844         1    ;  uncertainty k = 0.266748
         6         7         8        44     9      180.000000       -0.345485         2    ;  uncertainty k = 0.101300
         6         7         8        44     9        0.000000        0.394880         3    ;  uncertainty k = 0.108227
         6         7         8        44     9      180.000000       -0.070781         4    ;  uncertainty k = 0.048007
         6         7        35        36     9        0.000000       -1.170185         1    ;  uncertainty k = 0.334655
         6         7        35        36     9      180.000000        4.880266         2    ;  uncertainty k = 0.323686
         6         7        35        36     9        0.000000        1.279706         3    ;  uncertainty k = 0.118363
         6         7        35        36     9      180.000000        0.575624         4    ;  uncertainty k = 0.083005
         6         7        35        37     9        0.000000       -1.631697         1    ;  uncertainty k = 0.279350
         6         7        35        37     9      180.000000        3.392199         2    ;  uncertainty k = 0.510159
         6         7        35        37     9        0.000000        0.814553         3    ;  uncertainty k = 0.127255
         6         7        35        37     9      180.000000        0.128487         4    ;  uncertainty k = 0.053904
         7         6         5        10     9        0.000000       -2.823350         1    ;  uncertainty k = 0.488930
         7         6         5        10     9      180.000000       -0.460801         2    ;  uncertainty k = 0.536332
         7         6         5        10     9        0.000000        0.760014         3    ;  uncertainty k = 0.189206
         7         6         5        10     9      180.000000       -0.140462         4    ;  uncertainty k = 0.174339
         7         6         5        53     9        0.000000       -0.729544         1    ;  uncertainty k = 0.497030
         7         6         5        53     9      180.000000       -0.791957         2    ;  uncertainty k = 0.456970
         7         6         5        53     9        0.000000       -0.041902         3    ;  uncertainty k = 0.196139
         7         6         5        53     9      180.000000       -0.091107         4    ;  uncertainty k = 0.082280
         7         8         9        45     9        0.000000       -1.242142         1    ;  uncertainty k = 0.333100
         7         8         9        45     9      180.000000       -0.547474         2    ;  uncertainty k = 0.199769
         7         8         9        45     9        0.000000        0.486958         3    ;  uncertainty k = 0.161841
         7         8         9        45     9      180.000000       -0.063234         4    ;  uncertainty k = 0.050819
         7         8         9        46     9        0.000000       -1.242142         1    ;  uncertainty k = 0.333100
         7         8         9        46     9      180.000000       -0.547474         2    ;  uncertainty k = 0.199769
         7         8         9        46     9        0.000000        0.486958         3    ;  uncertainty k = 0.161841
         7         8         9        46     9      180.000000       -0.063234         4    ;  uncertainty k = 0.050819
         7        35        37        38     9        0.000000        9.050821         1    ;  uncertainty k = 0.304912
         7        35        37        38     9      180.000000        6.374692         2    ;  uncertainty k = 0.405917
         7        35        37        38     9        0.000000        1.178678         3    ;  uncertainty k = 0.297789
         7        35        37        38     9      180.000000        0.054538         4    ;  uncertainty k = 0.124306
         7        35        37        39     9        0.000000        9.050821         1    ;  uncertainty k = 0.304912
         7        35        37        39     9      180.000000        6.374692         2    ;  uncertainty k = 0.405917
         7        35        37        39     9        0.000000        1.178678         3    ;  uncertainty k = 0.297789
         7        35        37        39     9      180.000000        0.054538         4    ;  uncertainty k = 0.124306
         8         7         6        40     9        0.000000       -1.411123         1    ;  uncertainty k = 0.345622
         8         7         6        40     9      180.000000       -0.225290         2    ;  uncertainty k = 0.172594
         8         7         6        40     9        0.000000        0.346843         3    ;  uncertainty k = 0.114252
         8         7         6        40     9      180.000000       -0.038457         4    ;  uncertainty k = 0.044896
         8         7         6        41     9        0.000000       -1.411123         1    ;  uncertainty k = 0.345622
         8         7         6        41     9      180.000000       -0.225290         2    ;  uncertainty k = 0.172594
         8         7         6        41     9        0.000000        0.346843         3    ;  uncertainty k = 0.114252
         8         7         6        41     9      180.000000       -0.038457         4    ;  uncertainty k = 0.044896
         8         7        35        36     9        0.000000       -1.412751         1    ;  uncertainty k = 0.366362
         8         7        35        36     9      180.000000        4.939282         2    ;  uncertainty k = 0.250194
         8         7        35        36     9        0.000000        1.341107         3    ;  uncertainty k = 0.099404
         8         7        35        36     9      180.000000        0.562838         4    ;  uncertainty k = 0.064019
         8         7        35        37     9        0.000000       -1.501807         1    ;  uncertainty k = 0.463410
         8         7        35        37     9      180.000000        3.323275         2    ;  uncertainty k = 0.502078
         8         7        35        37     9        0.000000        0.807080         3    ;  uncertainty k = 0.124119
         8         7        35        37     9      180.000000        0.125518         4    ;  uncertainty k = 0.039696
         8         9         3        17     9        0.000000       -1.458220         1    ;  uncertainty k = 0.303159
         8         9         3        17     9      180.000000       -0.255607         2    ;  uncertainty k = 0.240018
         8         9         3        17     9        0.000000        0.029639         3    ;  uncertainty k = 0.100361
         8         9         3        17     9      180.000000       -0.150287         4    ;  uncertainty k = 0.106318
         9         3         2        16     9        0.000000        0.668960         1    ;  uncertainty k = 0.709734
         9         3         2        16     9      180.000000       -0.459346         2    ;  uncertainty k = 0.312074
         9         3         2        16     9        0.000000        0.282193         3    ;  uncertainty k = 0.121478
         9         3         2        16     9      180.000000        0.025937         4    ;  uncertainty k = 0.063549
         9         3         5        10     9        0.000000       -2.807744         1    ;  uncertainty k = 0.487569
         9         3         5        10     9      180.000000       -0.105252         2    ;  uncertainty k = 0.383354
         9         3         5        10     9        0.000000        0.586299         3    ;  uncertainty k = 0.173543
         9         3         5        10     9      180.000000       -0.070878         4    ;  uncertainty k = 0.195095
         9         3         5        53     9        0.000000       -1.272124         1    ;  uncertainty k = 0.255827
         9         3         5        53     9      180.000000       -0.302272         2    ;  uncertainty k = 0.366702
         9         3         5        53     9        0.000000       -0.215971         3    ;  uncertainty k = 0.081625
         9         3         5        53     9      180.000000       -0.166477         4    ;  uncertainty k = 0.069123
         9         8         7        35     9        0.000000       -3.041090         1    ;  uncertainty k = 1.250697
         9         8         7        35     9      180.000000       -0.383141         2    ;  uncertainty k = 0.506412
         9         8         7        35     9        0.000000        0.568121         3    ;  uncertainty k = 0.143697
         9         8         7        35     9      180.000000        0.124098         4    ;  uncertainty k = 0.149878
         9         8         7        42     9        0.000000       -2.462407         1    ;  uncertainty k = 0.395127
         9         8         7        42     9      180.000000        0.138659         2    ;  uncertainty k = 0.106163
         9         8         7        42     9        0.000000        0.247790         3    ;  uncertainty k = 0.112075
         9         8         7        42     9      180.000000       -0.234904         4    ;  uncertainty k = 0.140378
        10         5         3        17     9        0.000000        0.047714         1    ;  uncertainty k = 1.092912
        10         5         3        17     9      180.000000       -1.470376         2    ;  uncertainty k = 0.516463
        10         5         3        17     9        0.000000        0.499603         3    ;  uncertainty k = 0.269005
        10         5         3        17     9      180.000000       -0.254247         4    ;  uncertainty k = 0.119856
        10         5         6        40     9        0.000000       -0.426053         1    ;  uncertainty k = 0.715619
        10         5         6        40     9      180.000000       -1.218663         2    ;  uncertainty k = 0.323961
        10         5         6        40     9        0.000000        0.959757         3    ;  uncertainty k = 0.057975
        10         5         6        40     9      180.000000       -0.287486         4    ;  uncertainty k = 0.054397
        10         5         6        41     9        0.000000       -0.426053         1    ;  uncertainty k = 0.715619
        10         5         6        41     9      180.000000       -1.218663         2    ;  uncertainty k = 0.323961
        10         5         6        41     9        0.000000        0.959757         3    ;  uncertainty k = 0.057975
        10         5         6        41     9      180.000000       -0.287486         4    ;  uncertainty k = 0.054397
        10        11        12        14     9        0.000000        2.331066         1    ;  uncertainty k = 1.152102
        10        11        12        14     9      180.000000        2.596169         2    ;  uncertainty k = 0.278815
        10        11        12        14     9        0.000000        0.009927         3    ;  uncertainty k = 0.144977
        10        11        12        14     9      180.000000       -0.114334         4    ;  uncertainty k = 0.149289
        10        11        12        15     9        0.000000        3.367960         1    ;  uncertainty k = 1.051353
        10        11        12        15     9      180.000000        3.218021         2    ;  uncertainty k = 0.680396
        10        11        12        15     9        0.000000        1.143577         3    ;  uncertainty k = 0.311002
        10        11        12        15     9      180.000000       -0.348976         4    ;  uncertainty k = 0.193639
        11        10         5        53     9        0.000000        1.089600         1    ;  uncertainty k = 0.336795
        11        10         5        53     9      180.000000       -0.431387         2    ;  uncertainty k = 0.172745
        11        10         5        53     9        0.000000        0.083106         3    ;  uncertainty k = 0.110757
        11        10         5        53     9      180.000000        0.217749         4    ;  uncertainty k = 0.051819
        11        12        14        19     9        0.000000        0.338836         1    ;  uncertainty k = 0.784673
        11        12        14        19     9      180.000000       19.192857         2    ;  uncertainty k = 0.359716
        11        12        14        19     9        0.000000        1.903447         3    ;  uncertainty k = 0.386883
        11        12        14        19     9      180.000000        1.368535         4    ;  uncertainty k = 0.528772
        11        12        15        20     9        0.000000        0.370727         1    ;  uncertainty k = 1.804242
        11        12        15        20     9      180.000000        8.920830         2    ;  uncertainty k = 1.081273
        11        12        15        20     9        0.000000        0.589745         3    ;  uncertainty k = 1.110553
        11        12        15        20     9      180.000000        0.676613         4    ;  uncertainty k = 0.547063
        12        11        10        18     9        0.000000       -0.086051         1    ;  uncertainty k = 0.569285
        12        11        10        18     9      180.000000        6.824223         2    ;  uncertainty k = 1.004102
        12        11        10        18     9        0.000000        2.774672         3    ;  uncertainty k = 0.278048
        12        11        10        18     9      180.000000        0.087878         4    ;  uncertainty k = 0.345011
        12        14        19        20     9        0.000000       -0.476241         1    ;  uncertainty k = 0.425307
        12        14        19        20     9      180.000000       15.671500         2    ;  uncertainty k = 0.795841
        12        14        19        20     9        0.000000       -2.864533         3    ;  uncertainty k = 0.780902
        12        14        19        20     9      180.000000        1.605024         4    ;  uncertainty k = 0.448125
        12        14        19        24     9        0.000000        0.569206         1    ;  uncertainty k = 1.621980
        12        14        19        24     9      180.000000       12.800205         2    ;  uncertainty k = 0.282748
        12        14        19        24     9        0.000000        1.817073         3    ;  uncertainty k = 0.361654
        12        14        19        24     9      180.000000        0.682642         4    ;  uncertainty k = 0.136948
        12        15        20        19     9        0.000000       -0.523789         1    ;  uncertainty k = 1.004169
        12        15        20        19     9      180.000000       13.442345         2    ;  uncertainty k = 0.923619
        12        15        20        19     9        0.000000       -9.024257         3    ;  uncertainty k = 1.660071
        12        15        20        19     9      180.000000        1.636793         4    ;  uncertainty k = 0.487983
        12        15        20        21     9        0.000000        1.116166         1    ;  uncertainty k = 1.266411
        12        15        20        21     9      180.000000       10.158909         2    ;  uncertainty k = 0.818049
        12        15        20        21     9        0.000000        0.724355         3    ;  uncertainty k = 0.566010
        12        15        20        21     9      180.000000       -0.026620         4    ;  uncertainty k = 0.200593
        13        11        10        18     9        0.000000        2.038363         1    ;  uncertainty k = 0.746143
        13        11        10        18     9      180.000000       14.699346         2    ;  uncertainty k = 0.325315
        13        11        10        18     9        0.000000        1.840592         3    ;  uncertainty k = 0.226058
        13        11        10        18     9      180.000000       -0.518143         4    ;  uncertainty k = 0.264067
        13        11        12        14     9        0.000000       -0.975565         1    ;  uncertainty k = 1.614283
        13        11        12        14     9      180.000000        3.488550         2    ;  uncertainty k = 0.286154
        13        11        12        14     9        0.000000        0.632000         3    ;  uncertainty k = 0.220397
        13        11        12        14     9      180.000000        0.223278         4    ;  uncertainty k = 0.063243
        13        11        12        15     9        0.000000       -0.928770         1    ;  uncertainty k = 0.780300
        13        11        12        15     9      180.000000        4.634695         2    ;  uncertainty k = 0.475093
        13        11        12        15     9        0.000000        0.007574         3    ;  uncertainty k = 0.071977
        13        11        12        15     9      180.000000        0.288910         4    ;  uncertainty k = 0.240907
        14        12        15        20     9        0.000000        0.143511         1    ;  uncertainty k = 1.333641
        14        12        15        20     9      180.000000       14.564367         2    ;  uncertainty k = 1.374348
        14        12        15        20     9        0.000000       -9.893199         3    ;  uncertainty k = 1.620531
        14        12        15        20     9      180.000000        1.663619         4    ;  uncertainty k = 0.759588
        14        19        20        15     9        0.000000        0.087022         1    ;  uncertainty k = 0.519435
        14        19        20        15     9      180.000000       17.308740         2    ;  uncertainty k = 0.865665
        14        19        20        15     9        0.000000       -2.374264         3    ;  uncertainty k = 0.748324
        14        19        20        15     9      180.000000        1.160228         4    ;  uncertainty k = 0.641111
        14        19        20        21     9        0.000000        0.011055         1    ;  uncertainty k = 0.425259
        14        19        20        21     9      180.000000       14.953749         2    ;  uncertainty k = 0.328993
        14        19        20        21     9        0.000000        1.241934         3    ;  uncertainty k = 0.342959
        14        19        20        21     9      180.000000        1.144042         4    ;  uncertainty k = 0.470191
        14        19        24        23     9        0.000000       -3.954572         1    ;  uncertainty k = 1.035742
        14        19        24        23     9      180.000000        1.199577         2    ;  uncertainty k = 0.494541
        14        19        24        23     9        0.000000        0.552603         3    ;  uncertainty k = 0.196554
        14        19        24        23     9      180.000000        0.408701         4    ;  uncertainty k = 0.071879
        14        19        24        30     9        0.000000        0.678330         1    ;  uncertainty k = 0.150352
        14        19        24        30     9      180.000000        1.438459         2    ;  uncertainty k = 0.504096
        14        19        24        30     9        0.000000        0.609129         3    ;  uncertainty k = 0.196471
        14        19        24        30     9      180.000000        0.167234         4    ;  uncertainty k = 0.108981
        14        19        24        31     9        0.000000        0.678330         1    ;  uncertainty k = 0.150352
        14        19        24        31     9      180.000000        1.438459         2    ;  uncertainty k = 0.504096
        14        19        24        31     9        0.000000        0.609129         3    ;  uncertainty k = 0.196471
        14        19        24        31     9      180.000000        0.167234         4    ;  uncertainty k = 0.108981
        15        12        14        19     9        0.000000       -0.152600         1    ;  uncertainty k = 0.906407
        15        12        14        19     9      180.000000       20.432965         2    ;  uncertainty k = 0.275340
        15        12        14        19     9        0.000000       -2.337892         3    ;  uncertainty k = 1.016825
        15        12        14        19     9      180.000000        1.938626         4    ;  uncertainty k = 0.362221
        15        20        19        24     9        0.000000        0.239944         1    ;  uncertainty k = 0.547138
        15        20        19        24     9      180.000000       12.400727         2    ;  uncertainty k = 0.549556
        15        20        19        24     9        0.000000        0.936373         3    ;  uncertainty k = 0.318788
        15        20        19        24     9      180.000000        0.958147         4    ;  uncertainty k = 0.190163
        15        20        21        22     9        0.000000       -8.471687         1    ;  uncertainty k = 1.305576
        15        20        21        22     9      180.000000       -0.738803         2    ;  uncertainty k = 0.986263
        15        20        21        22     9        0.000000        0.572190         3    ;  uncertainty k = 0.535086
        15        20        21        22     9      180.000000        0.223231         4    ;  uncertainty k = 0.263405
        15        20        21        26     9        0.000000        0.153964         1    ;  uncertainty k = 0.629108
        15        20        21        26     9      180.000000        0.393717         2    ;  uncertainty k = 0.317135
        15        20        21        26     9        0.000000        0.658149         3    ;  uncertainty k = 0.161833
        15        20        21        26     9      180.000000       -0.071880         4    ;  uncertainty k = 0.067074
        15        20        21        27     9        0.000000        0.153964         1    ;  uncertainty k = 0.629108
        15        20        21        27     9      180.000000        0.393717         2    ;  uncertainty k = 0.317135
        15        20        21        27     9        0.000000        0.658149         3    ;  uncertainty k = 0.161833
        15        20        21        27     9      180.000000       -0.071880         4    ;  uncertainty k = 0.067074
        16         2         1        54     9        0.000000       -0.300891         1    ;  uncertainty k = 0.713953
        16         2         1        54     9      180.000000        7.714296         2    ;  uncertainty k = 0.619793
        16         2         1        54     9        0.000000        2.686590         3    ;  uncertainty k = 0.400159
        16         2         1        54     9      180.000000       -0.118102         4    ;  uncertainty k = 0.268471
        16         2         3        17     9        0.000000        0.547288         1    ;  uncertainty k = 0.373750
        16         2         3        17     9      180.000000       -0.600323         2    ;  uncertainty k = 0.169434
        16         2         3        17     9        0.000000        0.170480         3    ;  uncertainty k = 0.158892
        16         2         3        17     9      180.000000        0.183963         4    ;  uncertainty k = 0.068386
        17         3         5        53     9        0.000000        1.513385         1    ;  uncertainty k = 0.281708
        17         3         5        53     9      180.000000       -0.677905         2    ;  uncertainty k = 0.153638
        17         3         5        53     9        0.000000       -0.218104         3    ;  uncertainty k = 0.163610
        17         3         5        53     9      180.000000       -0.044998         4    ;  uncertainty k = 0.125017
        17         3         9        45     9        0.000000        1.377020         1    ;  uncertainty k = 0.282676
        17         3         9        45     9      180.000000       -0.517249         2    ;  uncertainty k = 0.207400
        17         3         9        45     9        0.000000       -0.079662         3    ;  uncertainty k = 0.113098
        17         3         9        45     9      180.000000        0.041721         4    ;  uncertainty k = 0.028124
        17         3         9        46     9        0.000000        1.377020         1    ;  uncertainty k = 0.282676
        17         3         9        46     9      180.000000       -0.517249         2    ;  uncertainty k = 0.207400
        17         3         9        46     9        0.000000       -0.079662         3    ;  uncertainty k = 0.113098
        17         3         9        46     9      180.000000        0.041721         4    ;  uncertainty k = 0.028124
        18        10         5        53     9        0.000000        0.543896         1    ;  uncertainty k = 0.397136
        18        10         5        53     9      180.000000       -0.624323         2    ;  uncertainty k = 0.182566
        18        10         5        53     9        0.000000        0.192235         3    ;  uncertainty k = 0.116009
        18        10         5        53     9      180.000000        0.189280         4    ;  uncertainty k = 0.076527
        19        20        21        22     9        0.000000       -4.140071         1    ;  uncertainty k = 1.925675
        19        20        21        22     9      180.000000        2.074247         2    ;  uncertainty k = 0.552905
        19        20        21        22     9        0.000000       -0.109904         3    ;  uncertainty k = 0.505232
        19        20        21        22     9      180.000000        0.002033         4    ;  uncertainty k = 0.168271
        19        20        21        26     9        0.000000        0.751076         1    ;  uncertainty k = 0.572851
        19        20        21        26     9      180.000000        0.321327         2    ;  uncertainty k = 0.277446
        19        20        21        26     9        0.000000       -0.191165         3    ;  uncertainty k = 0.140749
        19        20        21        26     9      180.000000       -0.337116         4    ;  uncertainty k = 0.203995
        19        20        21        27     9        0.000000        0.751076         1    ;  uncertainty k = 0.572851
        19        20        21        27     9      180.000000        0.321327         2    ;  uncertainty k = 0.277446
        19        20        21        27     9        0.000000       -0.191165         3    ;  uncertainty k = 0.140749
        19        20        21        27     9      180.000000       -0.337116         4    ;  uncertainty k = 0.203995
        19        24        23        22     9        0.000000       -2.230974         1    ;  uncertainty k = 1.801449
        19        24        23        22     9      180.000000       -1.841150         2    ;  uncertainty k = 0.733686
        19        24        23        22     9        0.000000        2.407959         3    ;  uncertainty k = 0.680334
        19        24        23        22     9      180.000000       -0.535745         4    ;  uncertainty k = 0.301690
        19        24        23        28     9        0.000000        1.199598         1    ;  uncertainty k = 0.377899
        19        24        23        28     9      180.000000       -1.613470         2    ;  uncertainty k = 0.549592
        19        24        23        28     9        0.000000        0.472706         3    ;  uncertainty k = 0.260800
        19        24        23        28     9      180.000000        0.111560         4    ;  uncertainty k = 0.091588
        19        24        23        29     9        0.000000        1.199598         1    ;  uncertainty k = 0.377899
        19        24        23        29     9      180.000000       -1.613470         2    ;  uncertainty k = 0.549592
        19        24        23        29     9        0.000000        0.472706         3    ;  uncertainty k = 0.260800
        19        24        23        29     9      180.000000        0.111560         4    ;  uncertainty k = 0.091588
        20        19        24        23     9        0.000000       -4.440652         1    ;  uncertainty k = 1.431166
        20        19        24        23     9      180.000000        4.155396         2    ;  uncertainty k = 1.296225
        20        19        24        23     9        0.000000       -0.642889         3    ;  uncertainty k = 0.597439
        20        19        24        23     9      180.000000       -0.217610         4    ;  uncertainty k = 0.318749
        20        19        24        30     9        0.000000        0.013025         1    ;  uncertainty k = 0.359065
        20        19        24        30     9      180.000000        1.250042         2    ;  uncertainty k = 0.490358
        20        19        24        30     9        0.000000        0.121610         3    ;  uncertainty k = 0.182463
        20        19        24        30     9      180.000000       -0.043715         4    ;  uncertainty k = 0.054548
        20        19        24        31     9        0.000000        0.013025         1    ;  uncertainty k = 0.359065
        20        19        24        31     9      180.000000        1.250042         2    ;  uncertainty k = 0.490358
        20        19        24        31     9        0.000000        0.121610         3    ;  uncertainty k = 0.182463
        20        19        24        31     9      180.000000       -0.043715         4    ;  uncertainty k = 0.054548
        20        21        22        23     9        0.000000       -2.931117         1    ;  uncertainty k = 2.436693
        20        21        22        23     9      180.000000       -1.451129         2    ;  uncertainty k = 0.464093
        20        21        22        23     9        0.000000        1.404828         3    ;  uncertainty k = 0.130307
        20        21        22        23     9      180.000000       -0.528609         4    ;  uncertainty k = 0.249297
        20        21        22        25     9        0.000000       -2.021362         1    ;  uncertainty k = 1.008927
        20        21        22        25     9      180.000000       -1.118312         2    ;  uncertainty k = 0.472230
        20        21        22        25     9        0.000000        1.258207         3    ;  uncertainty k = 0.234248
        20        21        22        25     9      180.000000       -0.045254         4    ;  uncertainty k = 0.250793
        21        20        19        24     9        0.000000        0.282381         1    ;  uncertainty k = 0.657141
        21        20        19        24     9      180.000000       10.551064         2    ;  uncertainty k = 0.221306
        21        20        19        24     9        0.000000        1.077819         3    ;  uncertainty k = 0.516713
        21        20        19        24     9      180.000000        0.991474         4    ;  uncertainty k = 0.186199
        21        22        23        24     9        0.000000       -4.350974         1    ;  uncertainty k = 2.057076
        21        22        23        24     9      180.000000       -1.496991         2    ;  uncertainty k = 0.799614
        21        22        23        24     9        0.000000        0.281379         3    ;  uncertainty k = 0.338606
        21        22        23        24     9      180.000000       -0.187310         4    ;  uncertainty k = 0.252807
        21        22        23        28     9        0.000000       -6.987612         1    ;  uncertainty k = 0.982733
        21        22        23        28     9      180.000000       -0.297910         2    ;  uncertainty k = 0.446998
        21        22        23        28     9        0.000000        0.675891         3    ;  uncertainty k = 0.207193
        21        22        23        28     9      180.000000       -0.045061         4    ;  uncertainty k = 0.100310
        21        22        23        29     9        0.000000       -6.987612         1    ;  uncertainty k = 0.982733
        21        22        23        29     9      180.000000       -0.297910         2    ;  uncertainty k = 0.446998
        21        22        23        29     9        0.000000        0.675891         3    ;  uncertainty k = 0.207193
        21        22        23        29     9      180.000000       -0.045061         4    ;  uncertainty k = 0.100310
        21        22        25        32     9        0.000000       -4.178510         1    ;  uncertainty k = 0.410688
        21        22        25        32     9      180.000000       -2.187807         2    ;  uncertainty k = 0.398638
        21        22        25        32     9        0.000000        1.157619         3    ;  uncertainty k = 0.069416
        21        22        25        32     9      180.000000        0.075129         4    ;  uncertainty k = 0.097696
        21        22        25        33     9        0.000000       -4.178510         1    ;  uncertainty k = 0.410688
        21        22        25        33     9      180.000000       -2.187807         2    ;  uncertainty k = 0.398638
        21        22        25        33     9        0.000000        1.157619         3    ;  uncertainty k = 0.069416
        21        22        25        33     9      180.000000        0.075129         4    ;  uncertainty k = 0.097696
        21        22        25        34     9        0.000000       -4.178510         1    ;  uncertainty k = 0.410688
        21        22        25        34     9      180.000000       -2.187807         2    ;  uncertainty k = 0.398638
        21        22        25        34     9        0.000000        1.157619         3    ;  uncertainty k = 0.069416
        21        22        25        34     9      180.000000        0.075129         4    ;  uncertainty k = 0.097696
        22        23        24        30     9        0.000000       -0.446420         1    ;  uncertainty k = 0.389425
        22        23        24        30     9      180.000000       -0.446895         2    ;  uncertainty k = 0.443633
        22        23        24        30     9        0.000000        1.043482         3    ;  uncertainty k = 0.139130
        22        23        24        30     9      180.000000       -0.054508         4    ;  uncertainty k = 0.166266
        22        23        24        31     9        0.000000       -0.446420         1    ;  uncertainty k = 0.389425
        22        23        24        31     9      180.000000       -0.446895         2    ;  uncertainty k = 0.443633
        22        23        24        31     9        0.000000        1.043482         3    ;  uncertainty k = 0.139130
        22        23        24        31     9      180.000000       -0.054508         4    ;  uncertainty k = 0.166266
        23        22        21        26     9        0.000000       -4.951174         1    ;  uncertainty k = 1.276230
        23        22        21        26     9      180.000000       -0.772512         2    ;  uncertainty k = 0.594344
        23        22        21        26     9        0.000000        0.687582         3    ;  uncertainty k = 0.234878
        23        22        21        26     9      180.000000        0.165440         4    ;  uncertainty k = 0.126758
        23        22        21        27     9        0.000000       -4.951174         1    ;  uncertainty k = 1.276230
        23        22        21        27     9      180.000000       -0.772512         2    ;  uncertainty k = 0.594344
        23        22        21        27     9        0.000000        0.687582         3    ;  uncertainty k = 0.234878
        23        22        21        27     9      180.000000        0.165440         4    ;  uncertainty k = 0.126758
        23        22        25        32     9        0.000000       -4.259086         1    ;  uncertainty k = 0.974846
        23        22        25        32     9      180.000000       -2.027003         2    ;  uncertainty k = 0.417753
        23        22        25        32     9        0.000000        1.017651         3    ;  uncertainty k = 0.103023
        23        22        25        32     9      180.000000        0.065258         4    ;  uncertainty k = 0.091860
        23        22        25        33     9        0.000000       -4.259086         1    ;  uncertainty k = 0.974846
        23        22        25        33     9      180.000000       -2.027003         2    ;  uncertainty k = 0.417753
        23        22        25        33     9        0.000000        1.017651         3    ;  uncertainty k = 0.103023
        23        22        25        33     9      180.000000        0.065258         4    ;  uncertainty k = 0.091860
        23        22        25        34     9        0.000000       -4.259086         1    ;  uncertainty k = 0.974846
        23        22        25        34     9      180.000000       -2.027003         2    ;  uncertainty k = 0.417753
        23        22        25        34     9        0.000000        1.017651         3    ;  uncertainty k = 0.103023
        23        22        25        34     9      180.000000        0.065258         4    ;  uncertainty k = 0.091860
        24        23        22        25     9        0.000000       -2.366425         1    ;  uncertainty k = 0.799682
        24        23        22        25     9      180.000000       -0.858215         2    ;  uncertainty k = 0.575132
        24        23        22        25     9        0.000000        0.300582         3    ;  uncertainty k = 0.302529
        24        23        22        25     9      180.000000        0.326407         4    ;  uncertainty k = 0.081722
        25        22        21        26     9        0.000000       -2.503106         1    ;  uncertainty k = 0.610923
        25        22        21        26     9      180.000000       -1.207857         2    ;  uncertainty k = 0.461275
        25        22        21        26     9        0.000000        0.607046         3    ;  uncertainty k = 0.147323
        25        22        21        26     9      180.000000        0.178325         4    ;  uncertainty k = 0.088460
        25        22        21        27     9        0.000000       -2.503106         1    ;  uncertainty k = 0.610923
        25        22        21        27     9      180.000000       -1.207857         2    ;  uncertainty k = 0.461275
        25        22        21        27     9        0.000000        0.607046         3    ;  uncertainty k = 0.147323
        25        22        21        27     9      180.000000        0.178325         4    ;  uncertainty k = 0.088460
        25        22        23        28     9        0.000000       -3.143701         1    ;  uncertainty k = 0.576024
        25        22        23        28     9      180.000000       -1.381403         2    ;  uncertainty k = 0.223671
        25        22        23        28     9        0.000000        0.354530         3    ;  uncertainty k = 0.126408
        25        22        23        28     9      180.000000        0.148173         4    ;  uncertainty k = 0.137426
        25        22        23        29     9        0.000000       -3.143701         1    ;  uncertainty k = 0.576024
        25        22        23        29     9      180.000000       -1.381403         2    ;  uncertainty k = 0.223671
        25        22        23        29     9        0.000000        0.354530         3    ;  uncertainty k = 0.126408
        25        22        23        29     9      180.000000        0.148173         4    ;  uncertainty k = 0.137426
        28        23        24        30     9        0.000000       -0.690419         1    ;  uncertainty k = 0.249272
        28        23        24        30     9      180.000000        0.819889         2    ;  uncertainty k = 0.297922
        28        23        24        30     9        0.000000        0.232501         3    ;  uncertainty k = 0.086816
        28        23        24        30     9      180.000000       -0.277806         4    ;  uncertainty k = 0.067741
        28        23        24        31     9        0.000000       -0.690419         1    ;  uncertainty k = 0.249272
        28        23        24        31     9      180.000000        0.819889         2    ;  uncertainty k = 0.297922
        28        23        24        31     9        0.000000        0.232501         3    ;  uncertainty k = 0.086816
        28        23        24        31     9      180.000000       -0.277806         4    ;  uncertainty k = 0.067741
        29        23        24        30     9        0.000000       -0.690419         1    ;  uncertainty k = 0.249272
        29        23        24        30     9      180.000000        0.819889         2    ;  uncertainty k = 0.297922
        29        23        24        30     9        0.000000        0.232501         3    ;  uncertainty k = 0.086816
        29        23        24        30     9      180.000000       -0.277806         4    ;  uncertainty k = 0.067741
        29        23        24        31     9        0.000000       -0.690419         1    ;  uncertainty k = 0.249272
        29        23        24        31     9      180.000000        0.819889         2    ;  uncertainty k = 0.297922
        29        23        24        31     9        0.000000        0.232501         3    ;  uncertainty k = 0.086816
        29        23        24        31     9      180.000000       -0.277806         4    ;  uncertainty k = 0.067741
        35         7         6        40     9        0.000000        2.074967         1    ;  uncertainty k = 0.921198
        35         7         6        40     9      180.000000       -0.794571         2    ;  uncertainty k = 0.180952
        35         7         6        40     9        0.000000        0.466866         3    ;  uncertainty k = 0.273235
        35         7         6        40     9      180.000000        0.035537         4    ;  uncertainty k = 0.093276
        35         7         6        41     9        0.000000        2.074967         1    ;  uncertainty k = 0.921198
        35         7         6        41     9      180.000000       -0.794571         2    ;  uncertainty k = 0.180952
        35         7         6        41     9        0.000000        0.466866         3    ;  uncertainty k = 0.273235
        35         7         6        41     9      180.000000        0.035537         4    ;  uncertainty k = 0.093276
        35         7         8        43     9        0.000000        2.252951         1    ;  uncertainty k = 0.998081
        35         7         8        43     9      180.000000       -0.859965         2    ;  uncertainty k = 0.120364
        35         7         8        43     9        0.000000        0.534711         3    ;  uncertainty k = 0.219264
        35         7         8        43     9      180.000000        0.057172         4    ;  uncertainty k = 0.086080
        35         7         8        44     9        0.000000        2.252951         1    ;  uncertainty k = 0.998081
        35         7         8        44     9      180.000000       -0.859965         2    ;  uncertainty k = 0.120364
        35         7         8        44     9        0.000000        0.534711         3    ;  uncertainty k = 0.219264
        35         7         8        44     9      180.000000        0.057172         4    ;  uncertainty k = 0.086080
        35        37        38        47     9        0.000000        0.159650         1    ;  uncertainty k = 0.146342
        35        37        38        47     9      180.000000       -0.144813         2    ;  uncertainty k = 0.094204
        35        37        38        47     9        0.000000        0.215227         3    ;  uncertainty k = 0.050987
        35        37        38        47     9      180.000000        0.244118         4    ;  uncertainty k = 0.052779
        35        37        38        48     9        0.000000        0.159650         1    ;  uncertainty k = 0.146342
        35        37        38        48     9      180.000000       -0.144813         2    ;  uncertainty k = 0.094204
        35        37        38        48     9        0.000000        0.215227         3    ;  uncertainty k = 0.050987
        35        37        38        48     9      180.000000        0.244118         4    ;  uncertainty k = 0.052779
        35        37        38        49     9        0.000000        0.159650         1    ;  uncertainty k = 0.146342
        35        37        38        49     9      180.000000       -0.144813         2    ;  uncertainty k = 0.094204
        35        37        38        49     9        0.000000        0.215227         3    ;  uncertainty k = 0.050987
        35        37        38        49     9      180.000000        0.244118         4    ;  uncertainty k = 0.052779
        35        37        39        50     9        0.000000        0.159650         1    ;  uncertainty k = 0.146342
        35        37        39        50     9      180.000000       -0.144813         2    ;  uncertainty k = 0.094204
        35        37        39        50     9        0.000000        0.215227         3    ;  uncertainty k = 0.050987
        35        37        39        50     9      180.000000        0.244118         4    ;  uncertainty k = 0.052779
        35        37        39        51     9        0.000000        0.159650         1    ;  uncertainty k = 0.146342
        35        37        39        51     9      180.000000       -0.144813         2    ;  uncertainty k = 0.094204
        35        37        39        51     9        0.000000        0.215227         3    ;  uncertainty k = 0.050987
        35        37        39        51     9      180.000000        0.244118         4    ;  uncertainty k = 0.052779
        35        37        39        52     9        0.000000        0.159650         1    ;  uncertainty k = 0.146342
        35        37        39        52     9      180.000000       -0.144813         2    ;  uncertainty k = 0.094204
        35        37        39        52     9        0.000000        0.215227         3    ;  uncertainty k = 0.050987
        35        37        39        52     9      180.000000        0.244118         4    ;  uncertainty k = 0.052779
        36        35         7        42     9        0.000000       -0.646773         1    ;  uncertainty k = 0.397646
        36        35         7        42     9      180.000000        3.762065         2    ;  uncertainty k = 0.492695
        36        35         7        42     9        0.000000        1.483897         3    ;  uncertainty k = 0.235291
        36        35         7        42     9      180.000000       -0.025919         4    ;  uncertainty k = 0.096422
        36        35        37        38     9        0.000000        6.844605         1    ;  uncertainty k = 0.882211
        36        35        37        38     9      180.000000       19.790839         2    ;  uncertainty k = 0.105250
        36        35        37        38     9        0.000000       -0.220230         3    ;  uncertainty k = 0.161100
        36        35        37        38     9      180.000000       -1.123904         4    ;  uncertainty k = 0.136735
        36        35        37        39     9        0.000000        6.844605         1    ;  uncertainty k = 0.882211
        36        35        37        39     9      180.000000       19.790839         2    ;  uncertainty k = 0.105250
        36        35        37        39     9        0.000000       -0.220230         3    ;  uncertainty k = 0.161100
        36        35        37        39     9      180.000000       -1.123904         4    ;  uncertainty k = 0.136735
        37        35         7        42     9        0.000000       -0.975826         1    ;  uncertainty k = 0.419407
        37        35         7        42     9      180.000000        2.303974         2    ;  uncertainty k = 0.241164
        37        35         7        42     9        0.000000        0.361698         3    ;  uncertainty k = 0.116719
        37        35         7        42     9      180.000000        0.170218         4    ;  uncertainty k = 0.047482
        38        37        39        50     9        0.000000       -0.681994         1    ;  uncertainty k = 0.166187
        38        37        39        50     9      180.000000       -1.033629         2    ;  uncertainty k = 0.139918
        38        37        39        50     9        0.000000        1.312135         3    ;  uncertainty k = 0.057549
        38        37        39        50     9      180.000000        0.172025         4    ;  uncertainty k = 0.029064
        38        37        39        51     9        0.000000       -0.681994         1    ;  uncertainty k = 0.166187
        38        37        39        51     9      180.000000       -1.033629         2    ;  uncertainty k = 0.139918
        38        37        39        51     9        0.000000        1.312135         3    ;  uncertainty k = 0.057549
        38        37        39        51     9      180.000000        0.172025         4    ;  uncertainty k = 0.029064
        38        37        39        52     9        0.000000       -0.681994         1    ;  uncertainty k = 0.166187
        38        37        39        52     9      180.000000       -1.033629         2    ;  uncertainty k = 0.139918
        38        37        39        52     9        0.000000        1.312135         3    ;  uncertainty k = 0.057549
        38        37        39        52     9      180.000000        0.172025         4    ;  uncertainty k = 0.029064
        39        37        38        47     9        0.000000       -0.681994         1    ;  uncertainty k = 0.166187
        39        37        38        47     9      180.000000       -1.033629         2    ;  uncertainty k = 0.139918
        39        37        38        47     9        0.000000        1.312135         3    ;  uncertainty k = 0.057549
        39        37        38        47     9      180.000000        0.172025         4    ;  uncertainty k = 0.029064
        39        37        38        48     9        0.000000       -0.681994         1    ;  uncertainty k = 0.166187
        39        37        38        48     9      180.000000       -1.033629         2    ;  uncertainty k = 0.139918
        39        37        38        48     9        0.000000        1.312135         3    ;  uncertainty k = 0.057549
        39        37        38        48     9      180.000000        0.172025         4    ;  uncertainty k = 0.029064
        39        37        38        49     9        0.000000       -0.681994         1    ;  uncertainty k = 0.166187
        39        37        38        49     9      180.000000       -1.033629         2    ;  uncertainty k = 0.139918
        39        37        38        49     9        0.000000        1.312135         3    ;  uncertainty k = 0.057549
        39        37        38        49     9      180.000000        0.172025         4    ;  uncertainty k = 0.029064
        40         6         5        53     9        0.000000        1.226337         1    ;  uncertainty k = 0.333268
        40         6         5        53     9      180.000000       -0.558738         2    ;  uncertainty k = 0.229595
        40         6         5        53     9        0.000000       -0.052763         3    ;  uncertainty k = 0.147877
        40         6         5        53     9      180.000000        0.050691         4    ;  uncertainty k = 0.043442
        40         6         7        42     9        0.000000        1.275091         1    ;  uncertainty k = 0.308666
        40         6         7        42     9      180.000000       -0.191825         2    ;  uncertainty k = 0.161770
        40         6         7        42     9        0.000000       -0.005639         3    ;  uncertainty k = 0.106020
        40         6         7        42     9      180.000000        0.069270         4    ;  uncertainty k = 0.064132
        41         6         5        53     9        0.000000        1.226337         1    ;  uncertainty k = 0.333268
        41         6         5        53     9      180.000000       -0.558738         2    ;  uncertainty k = 0.229595
        41         6         5        53     9        0.000000       -0.052763         3    ;  uncertainty k = 0.147877
        41         6         5        53     9      180.000000        0.050691         4    ;  uncertainty k = 0.043442
        41         6         7        42     9        0.000000        1.275091         1    ;  uncertainty k = 0.308666
        41         6         7        42     9      180.000000       -0.191825         2    ;  uncertainty k = 0.161770
        41         6         7        42     9        0.000000       -0.005639         3    ;  uncertainty k = 0.106020
        41         6         7        42     9      180.000000        0.069270         4    ;  uncertainty k = 0.064132
        42         7         8        43     9        0.000000        1.375228         1    ;  uncertainty k = 0.292892
        42         7         8        43     9      180.000000       -0.112288         2    ;  uncertainty k = 0.227466
        42         7         8        43     9        0.000000       -0.024960         3    ;  uncertainty k = 0.142904
        42         7         8        43     9      180.000000        0.069958         4    ;  uncertainty k = 0.050452
        42         7         8        44     9        0.000000        1.375228         1    ;  uncertainty k = 0.292892
        42         7         8        44     9      180.000000       -0.112288         2    ;  uncertainty k = 0.227466
        42         7         8        44     9        0.000000       -0.024960         3    ;  uncertainty k = 0.142904
        42         7         8        44     9      180.000000        0.069958         4    ;  uncertainty k = 0.050452
        43         8         9        45     9        0.000000        2.326423         1    ;  uncertainty k = 0.676926
        43         8         9        45     9      180.000000       -0.090332         2    ;  uncertainty k = 0.159897
        43         8         9        45     9        0.000000        0.305999         3    ;  uncertainty k = 0.135712
        43         8         9        45     9      180.000000        0.130735         4    ;  uncertainty k = 0.038641
        43         8         9        46     9        0.000000        2.326423         1    ;  uncertainty k = 0.676926
        43         8         9        46     9      180.000000       -0.090332         2    ;  uncertainty k = 0.159897
        43         8         9        46     9        0.000000        0.305999         3    ;  uncertainty k = 0.135712
        43         8         9        46     9      180.000000        0.130735         4    ;  uncertainty k = 0.038641
        44         8         9        45     9        0.000000        2.326423         1    ;  uncertainty k = 0.676926
        44         8         9        45     9      180.000000       -0.090332         2    ;  uncertainty k = 0.159897
        44         8         9        45     9        0.000000        0.305999         3    ;  uncertainty k = 0.135712
        44         8         9        45     9      180.000000        0.130735         4    ;  uncertainty k = 0.038641
        44         8         9        46     9        0.000000        2.326423         1    ;  uncertainty k = 0.676926
        44         8         9        46     9      180.000000       -0.090332         2    ;  uncertainty k = 0.159897
        44         8         9        46     9        0.000000        0.305999         3    ;  uncertainty k = 0.135712
        44         8         9        46     9      180.000000        0.130735         4    ;  uncertainty k = 0.038641
        54        55        57        58     9        0.000000       -0.695074         1    ;  uncertainty k = 0.790175
        54        55        57        58     9      180.000000       23.808223         2    ;  uncertainty k = 0.425298
        54        55        57        58     9        0.000000       -9.252796         3    ;  uncertainty k = 0.659926
        54        55        57        58     9      180.000000        2.158776         4    ;  uncertainty k = 0.661974
        54        55        57        62     9        0.000000        0.451883         1    ;  uncertainty k = 0.829140
        54        55        57        62     9      180.000000       18.072315         2    ;  uncertainty k = 0.298169
        54        55        57        62     9        0.000000        0.637268         3    ;  uncertainty k = 0.477721
        54        55        57        62     9      180.000000        1.410674         4    ;  uncertainty k = 0.288115
        54        56        58        57     9        0.000000        0.242624         1    ;  uncertainty k = 0.987587
        54        56        58        57     9      180.000000       13.112376         2    ;  uncertainty k = 0.969505
        54        56        58        57     9        0.000000      -11.391298         3    ;  uncertainty k = 1.746032
        54        56        58        57     9      180.000000        1.648233         4    ;  uncertainty k = 0.527370
        54        56        58        59     9        0.000000        0.783947         1    ;  uncertainty k = 1.477081
        54        56        58        59     9      180.000000        7.424069         2    ;  uncertainty k = 0.478535
        54        56        58        59     9        0.000000        1.287729         3    ;  uncertainty k = 0.346958
        54        56        58        59     9      180.000000        0.433238         4    ;  uncertainty k = 0.147026
        55        54        56        58     9        0.000000       -0.321520         1    ;  uncertainty k = 0.868245
        55        54        56        58     9      180.000000       20.595844         2    ;  uncertainty k = 0.474304
        55        54        56        58     9        0.000000       -8.768070         3    ;  uncertainty k = 1.347011
        55        54        56        58     9      180.000000        1.600413         4    ;  uncertainty k = 0.737015
        55        54        56        67     9        0.000000       -0.071541         1    ;  uncertainty k = 0.658955
        55        54        56        67     9      180.000000       12.657553         2    ;  uncertainty k = 0.516217
        55        54        56        67     9        0.000000        1.437535         3    ;  uncertainty k = 0.337779
        55        54        56        67     9      180.000000        0.673732         4    ;  uncertainty k = 0.203000
        55        57        58        56     9        0.000000       -0.517054         1    ;  uncertainty k = 0.384465
        55        57        58        56     9      180.000000       12.940650         2    ;  uncertainty k = 0.595906
        55        57        58        56     9        0.000000       -4.515119         3    ;  uncertainty k = 1.349005
        55        57        58        56     9      180.000000        1.142511         4    ;  uncertainty k = 0.425032
        55        57        58        59     9        0.000000        0.403229         1    ;  uncertainty k = 0.849751
        55        57        58        59     9      180.000000        8.461825         2    ;  uncertainty k = 0.322585
        55        57        58        59     9        0.000000        0.893299         3    ;  uncertainty k = 0.282097
        55        57        58        59     9      180.000000        0.862152         4    ;  uncertainty k = 0.086117
        55        57        62        61     9        0.000000        0.417874         1    ;  uncertainty k = 1.093644
        55        57        62        61     9      180.000000        6.604037         2    ;  uncertainty k = 0.422071
        55        57        62        61     9        0.000000        0.692504         3    ;  uncertainty k = 0.411567
        55        57        62        61     9      180.000000        0.767897         4    ;  uncertainty k = 0.321469
        55        57        62        66     9        0.000000       -0.863214         1    ;  uncertainty k = 0.740493
        55        57        62        66     9      180.000000        5.195044         2    ;  uncertainty k = 0.695383
        55        57        62        66     9        0.000000        1.187993         3    ;  uncertainty k = 0.282868
        55        57        62        66     9      180.000000        0.459974         4    ;  uncertainty k = 0.195630
        56        54        55        57     9        0.000000       -0.452431         1    ;  uncertainty k = 0.466986
        56        54        55        57     9      180.000000       16.223047         2    ;  uncertainty k = 0.275966
        56        54        55        57     9        0.000000       -3.749212         3    ;  uncertainty k = 0.872152
        56        54        55        57     9      180.000000        1.845563         4    ;  uncertainty k = 0.100881
        56        58        57        62     9        0.000000        0.461268         1    ;  uncertainty k = 1.297913
        56        58        57        62     9      180.000000        6.794333         2    ;  uncertainty k = 0.682677
        56        58        57        62     9        0.000000        0.032734         3    ;  uncertainty k = 0.392270
        56        58        57        62     9      180.000000        0.545423         4    ;  uncertainty k = 0.311258
        56        58        59        60     9        0.000000        0.751378         1    ;  uncertainty k = 1.215252
        56        58        59        60     9      180.000000        6.756719         2    ;  uncertainty k = 0.399252
        56        58        59        60     9        0.000000        0.767522         3    ;  uncertainty k = 0.295261
        56        58        59        60     9      180.000000        0.370053         4    ;  uncertainty k = 0.109454
        56        58        59        63     9        0.000000        1.378996         1    ;  uncertainty k = 1.188937
        56        58        59        63     9      180.000000        3.356495         2    ;  uncertainty k = 0.917622
        56        58        59        63     9        0.000000        1.034652         3    ;  uncertainty k = 0.341512
        56        58        59        63     9      180.000000        0.234444         4    ;  uncertainty k = 0.114779
        57        58        56        67     9        0.000000        0.940548         1    ;  uncertainty k = 0.832135
        57        58        56        67     9      180.000000        6.788134         2    ;  uncertainty k = 0.372989
        57        58        56        67     9        0.000000        1.083436         3    ;  uncertainty k = 0.427238
        57        58        56        67     9      180.000000        0.205985         4    ;  uncertainty k = 0.260604
        57        58        59        60     9        0.000000        0.160161         1    ;  uncertainty k = 1.374791
        57        58        59        60     9      180.000000        7.139568         2    ;  uncertainty k = 1.150891
        57        58        59        60     9        0.000000       -0.562133         3    ;  uncertainty k = 0.434993
        57        58        59        60     9      180.000000        0.552123         4    ;  uncertainty k = 0.336562
        57        58        59        63     9        0.000000        0.874557         1    ;  uncertainty k = 1.129442
        57        58        59        63     9      180.000000        4.234372         2    ;  uncertainty k = 0.722211
        57        58        59        63     9        0.000000        1.185249         3    ;  uncertainty k = 0.190192
        57        58        59        63     9      180.000000        0.266076         4    ;  uncertainty k = 0.154421
        57        62        61        60     9        0.000000       -0.036911         1    ;  uncertainty k = 0.935591
        57        62        61        60     9      180.000000       15.986122         2    ;  uncertainty k = 0.365638
        57        62        61        60     9        0.000000        1.042721         3    ;  uncertainty k = 0.427337
        57        62        61        60     9      180.000000        0.800613         4    ;  uncertainty k = 0.546030
        57        62        61        65     9        0.000000        0.076489         1    ;  uncertainty k = 0.269668
        57        62        61        65     9      180.000000       16.814981         2    ;  uncertainty k = 0.529610
        57        62        61        65     9        0.000000        2.236241         3    ;  uncertainty k = 0.151572
        57        62        61        65     9      180.000000        0.907932         4    ;  uncertainty k = 0.467729
        58        57        62        61     9        0.000000       -0.628568         1    ;  uncertainty k = 1.047866
        58        57        62        61     9      180.000000        9.169995         2    ;  uncertainty k = 0.190301
        58        57        62        61     9        0.000000       -0.381276         3    ;  uncertainty k = 0.537050
        58        57        62        61     9      180.000000        0.809075         4    ;  uncertainty k = 0.255744
        58        57        62        66     9        0.000000       -0.158155         1    ;  uncertainty k = 0.723545
        58        57        62        66     9      180.000000        5.860299         2    ;  uncertainty k = 0.604259
        58        57        62        66     9        0.000000        1.154852         3    ;  uncertainty k = 0.219204
        58        57        62        66     9      180.000000        0.550198         4    ;  uncertainty k = 0.161259
        58        59        60        61     9        0.000000       -0.011238         1    ;  uncertainty k = 0.783134
        58        59        60        61     9      180.000000       23.149655         2    ;  uncertainty k = 0.451799
        58        59        60        61     9        0.000000        0.238188         3    ;  uncertainty k = 0.290712
        58        59        60        61     9      180.000000        0.282757         4    ;  uncertainty k = 0.313086
        58        59        60        64     9        0.000000        0.004676         1    ;  uncertainty k = 0.080914
        58        59        60        64     9      180.000000       17.515628         2    ;  uncertainty k = 0.503392
        58        59        60        64     9        0.000000        2.081686         3    ;  uncertainty k = 0.274395
        58        59        60        64     9      180.000000        0.896752         4    ;  uncertainty k = 0.521707
        59        58        56        67     9        0.000000        0.668029         1    ;  uncertainty k = 1.768316
        59        58        56        67     9      180.000000        2.852240         2    ;  uncertainty k = 0.707200
        59        58        56        67     9        0.000000        1.227502         3    ;  uncertainty k = 0.414114
        59        58        56        67     9      180.000000        0.131146         4    ;  uncertainty k = 0.087780
        59        58        57        62     9        0.000000        0.095532         1    ;  uncertainty k = 1.182789
        59        58        57        62     9      180.000000        5.652320         2    ;  uncertainty k = 1.572277
        59        58        57        62     9        0.000000        1.245411         3    ;  uncertainty k = 0.341144
        59        58        57        62     9      180.000000        0.389276         4    ;  uncertainty k = 0.391971
        59        60        61        62     9        0.000000        0.112380         1    ;  uncertainty k = 0.736828
        59        60        61        62     9      180.000000        5.145814         2    ;  uncertainty k = 0.501992
        59        60        61        62     9        0.000000        0.511722         3    ;  uncertainty k = 0.387800
        59        60        61        62     9      180.000000        0.820113         4    ;  uncertainty k = 0.135374
        59        60        61        65     9        0.000000        0.466632         1    ;  uncertainty k = 0.278120
        59        60        61        65     9      180.000000        6.435005         2    ;  uncertainty k = 0.426849
        59        60        61        65     9        0.000000        1.123518         3    ;  uncertainty k = 0.441352
        59        60        61        65     9      180.000000        0.657820         4    ;  uncertainty k = 0.347754
        60        61        62        66     9        0.000000        0.038560         1    ;  uncertainty k = 0.547558
        60        61        62        66     9      180.000000       10.638776         2    ;  uncertainty k = 0.558090
        60        61        62        66     9        0.000000        1.908412         3    ;  uncertainty k = 0.219852
        60        61        62        66     9      180.000000        1.490370         4    ;  uncertainty k = 0.408738
        61        60        59        63     9        0.000000       -0.207957         1    ;  uncertainty k = 0.344941
        61        60        59        63     9      180.000000       13.590987         2    ;  uncertainty k = 0.446741
        61        60        59        63     9        0.000000        2.002873         3    ;  uncertainty k = 0.263238
        61        60        59        63     9      180.000000        1.331085         4    ;  uncertainty k = 0.390329
        62        61        60        64     9        0.000000       -0.107559         1    ;  uncertainty k = 0.758321
        62        61        60        64     9      180.000000        5.042113         2    ;  uncertainty k = 0.423879
        62        61        60        64     9        0.000000        0.884957         3    ;  uncertainty k = 0.213585
        62        61        60        64     9      180.000000        0.477802         4    ;  uncertainty k = 0.160654
        63        59        60        64     9        0.000000       -0.729663         1    ;  uncertainty k = 0.350235
        63        59        60        64     9      180.000000        9.591382         2    ;  uncertainty k = 0.285947
        63        59        60        64     9        0.000000        1.099134         3    ;  uncertainty k = 0.448999
        63        59        60        64     9      180.000000        0.642858         4    ;  uncertainty k = 0.441897
        64        60        61        65     9        0.000000        0.104419         1    ;  uncertainty k = 0.689156
        64        60        61        65     9      180.000000        6.403810         2    ;  uncertainty k = 0.634824
        64        60        61        65     9        0.000000        1.222462         3    ;  uncertainty k = 0.193698
        64        60        61        65     9      180.000000        0.414378         4    ;  uncertainty k = 0.257363
        65        61        62        66     9        0.000000       -0.530454         1    ;  uncertainty k = 0.529870
        65        61        62        66     9      180.000000       10.593045         2    ;  uncertainty k = 0.391919
        65        61        62        66     9        0.000000        1.452093         3    ;  uncertainty k = 0.272164
        65        61        62        66     9      180.000000        1.160819         4    ;  uncertainty k = 0.502356

[ dihedrals ] ; impropers
;       ai        aj        ak        al funct           phase               k        pn
         1         2         4        54     4      180.000000       50.070382         2    ;  uncertainty k = 0.032818
         1         4        54         2     4      180.000000       50.070382         2    ;  uncertainty k = 0.032818
         1        54         2         4     4      180.000000       50.070382         2    ;  uncertainty k = 0.032818
         2         1         3        16     4      180.000000        0.419783         2    ;  uncertainty k = 0.938663
         2         3        16         1     4      180.000000        0.419783         2    ;  uncertainty k = 0.938663
         2        16         1         3     4      180.000000        0.419783         2    ;  uncertainty k = 0.938663
        11        10        12        13     4      180.000000       49.476644         2    ;  uncertainty k = 0.014914
        11        12        13        10     4      180.000000       49.476644         2    ;  uncertainty k = 0.014914
        11        13        10        12     4      180.000000       49.476644         2    ;  uncertainty k = 0.014914
        12        11        14        15     4      180.000000        4.762177         2    ;  uncertainty k = 0.485670
        12        14        15        11     4      180.000000        4.762177         2    ;  uncertainty k = 0.485670
        12        15        11        14     4      180.000000        4.762177         2    ;  uncertainty k = 0.485670
        19        14        20        24     4      180.000000       10.302524         2    ;  uncertainty k = 0.235813
        19        20        24        14     4      180.000000       10.302524         2    ;  uncertainty k = 0.235813
        19        24        14        20     4      180.000000       10.302524         2    ;  uncertainty k = 0.235813
        20        15        19        21     4      180.000000        2.894551         2    ;  uncertainty k = 0.672593
        20        19        21        15     4      180.000000        2.894551         2    ;  uncertainty k = 0.672593
        20        21        15        19     4      180.000000        2.894551         2    ;  uncertainty k = 0.672593
        35         7        36        37     4      180.000000       51.316640         2    ;  uncertainty k = 0.028239
        35        36        37         7     4      180.000000       51.316640         2    ;  uncertainty k = 0.028239
        35        37         7        36     4      180.000000       51.316640         2    ;  uncertainty k = 0.028239
        54         1        55        56     4      180.000000        4.082061         2    ;  uncertainty k = 0.319264
        54        55        56         1     4      180.000000        4.082061         2    ;  uncertainty k = 0.319264
        54        56         1        55     4      180.000000        4.082061         2    ;  uncertainty k = 0.319264
        56        54        58        67     4      180.000000        0.511563         2    ;  uncertainty k = 0.916795
        56        58        67        54     4      180.000000        0.511563         2    ;  uncertainty k = 0.916795
        56        67        54        58     4      180.000000        0.511563         2    ;  uncertainty k = 0.916795
        57        55        58        62     4      180.000000        4.720141         2    ;  uncertainty k = 0.438932
        57        58        62        55     4      180.000000        4.720141         2    ;  uncertainty k = 0.438932
        57        62        55        58     4      180.000000        4.720141         2    ;  uncertainty k = 0.438932
        58        56        57        59     4      180.000000        0.755799         2    ;  uncertainty k = 0.461956
        58        57        59        56     4      180.000000        0.755799         2    ;  uncertainty k = 0.461956
        58        59        56        57     4      180.000000        0.755799         2    ;  uncertainty k = 0.461956
        59        58        60        63     4      180.000000        5.928906         2    ;  uncertainty k = 0.231347
        59        60        63        58     4      180.000000        5.928906         2    ;  uncertainty k = 0.231347
        59        63        58        60     4      180.000000        5.928906         2    ;  uncertainty k = 0.231347
        60        59        61        64     4      180.000000        1.166402         2    ;  uncertainty k = 0.582832
        60        61        64        59     4      180.000000        1.166402         2    ;  uncertainty k = 0.582832
        60        64        59        61     4      180.000000        1.166402         2    ;  uncertainty k = 0.582832
        61        60        62        65     4      180.000000       13.344318         2    ;  uncertainty k = 0.148440
        61        62        65        60     4      180.000000       13.344318         2    ;  uncertainty k = 0.148440
        61        65        60        62     4      180.000000       13.344318         2    ;  uncertainty k = 0.148440
        62        57        61        66     4      180.000000        3.119481         2    ;  uncertainty k = 0.436158
        62        61        66        57     4      180.000000        3.119481         2    ;  uncertainty k = 0.436158
        62        66        57        61     4      180.000000        3.119481         2    ;  uncertainty k = 0.436158

[ pairs ]
;       ai        aj funct
         1         5     1
         1         9     1
         1        17     1
         1        57     1
         1        58     1
         1        67     1
         2         6     1
         2         8     1
         2        10     1
         2        45     1
         2        46     1
         2        53     1
         2        55     1
         2        56     1
         3         4     1
         3         7     1
         3        11     1
         3        18     1
         3        40     1
         3        41     1
         3        43     1
         3        44     1
         3        54     1
         4        16     1
         4        55     1
         4        56     1
         5         8     1
         5        12     1
         5        13     1
         5        16     1
         5        35     1
         5        42     1
         5        45     1
         5        46     1
         6         9     1
         6        11     1
         6        17     1
         6        18     1
         6        36     1
         6        37     1
         6        43     1
         6        44     1
         7        10     1
         7        38     1
         7        39     1
         7        45     1
         7        46     1
         7        53     1
         8        17     1
         8        36     1
         8        37     1
         8        40     1
         8        41     1
         9        10     1
         9        16     1
         9        35     1
         9        42     1
         9        53     1
        10        14     1
        10        15     1
        10        17     1
        10        40     1
        10        41     1
        11        19     1
        11        20     1
        11        53     1
        12        18     1
        12        21     1
        12        24     1
        13        14     1
        13        15     1
        13        18     1
        14        21     1
        14        23     1
        14        30     1
        14        31     1
        15        22     1
        15        24     1
        15        26     1
        15        27     1
        16        17     1
        16        54     1
        17        45     1
        17        46     1
        17        53     1
        18        53     1
        19        22     1
        19        26     1
        19        27     1
        19        28     1
        19        29     1
        20        23     1
        20        25     1
        20        30     1
        20        31     1
        21        24     1
        21        28     1
        21        29     1
        21        32     1
        21        33     1
        21        34     1
        22        30     1
        22        31     1
        23        26     1
        23        27     1
        23        32     1
        23        33     1
        23        34     1
        24        25     1
        25        26     1
        25        27     1
        25        28     1
        25        29     1
        28        30     1
        28        31     1
        29        30     1
        29        31     1
        35        40     1
        35        41     1
        35        43     1
        35        44     1
        35        47     1
        35        48     1
        35        49     1
        35        50     1
        35        51     1
        35        52     1
        36        38     1
        36        39     1
        36        42     1
        37        42     1
        38        50     1
        38        51     1
        38        52     1
        39        47     1
        39        48     1
        39        49     1
        40        42     1
        40        53     1
        41        42     1
        41        53     1
        42        43     1
        42        44     1
        43        45     1
        43        46     1
        44        45     1
        44        46     1
        54        59     1
        54        62     1
        55        59     1
        55        61     1
        55        66     1
        55        67     1
        56        60     1
        56        62     1
        56        63     1
        57        60     1
        57        63     1
        57        65     1
        57        67     1
        58        61     1
        58        64     1
        58        66     1
        59        62     1
        59        65     1
        59        67     1
        60        66     1
        61        63     1
        62        64     1
        63        64     1
        64        65     1
        65        66     1
