; ITP file created by ByteFF-joint-25, 2025-07-14 11:37:47.256932

[ atomtypes ]
;name           bonded.type        at.num        mass        charge   ptype           sigma         epsilon
 c0bf                                   6      0.0000       0.00000       A     3.31538e-01     4.12760e-01    ;  uncertainty sigma = 0.000015, epsilon = 0.001245
 n1bf                                   7      0.0000       0.00000       A     3.27040e-01     4.89105e-01    ;  uncertainty sigma = 0.000019, epsilon = 0.002491
 c2bf                                   6      0.0000       0.00000       A     3.39788e-01     4.50859e-01    ;  uncertainty sigma = 0.000020, epsilon = 0.000942
 o3bf                                   8      0.0000       0.00000       A     3.04815e-01     6.12581e-01    ;  uncertainty sigma = 0.000021, epsilon = 0.001106
 c4bf                                   6      0.0000       0.00000       A     3.39779e-01     4.50691e-01    ;  uncertainty sigma = 0.000021, epsilon = 0.001071
 c5bf                                   6      0.0000       0.00000       A     3.39785e-01     4.51177e-01    ;  uncertainty sigma = 0.000013, epsilon = 0.000568
 c6bf                                   6      0.0000       0.00000       A     3.39788e-01     4.50813e-01    ;  uncertainty sigma = 0.000005, epsilon = 0.001015
 c7bf                                   6      0.0000       0.00000       A     3.39784e-01     4.51089e-01    ;  uncertainty sigma = 0.000005, epsilon = 0.000646
 c8bf                                   6      0.0000       0.00000       A     3.39763e-01     4.50989e-01    ;  uncertainty sigma = 0.000009, epsilon = 0.000663
 n9bf                                   7      0.0000       0.00000       A     3.27037e-01     4.89849e-01    ;  uncertainty sigma = 0.000029, epsilon = 0.003194
 c10bf                                  6      0.0000       0.00000       A     3.31529e-01     4.12690e-01    ;  uncertainty sigma = 0.000018, epsilon = 0.001128
 c11bf                                  6      0.0000       0.00000       A     3.31525e-01     4.13652e-01    ;  uncertainty sigma = 0.000013, epsilon = 0.001225
 o12bf                                  8      0.0000       0.00000       A     3.04890e-01     6.12219e-01    ;  uncertainty sigma = 0.000024, epsilon = 0.000874
 n13bf                                  7      0.0000       0.00000       A     3.38354e-01     3.93161e-01    ;  uncertainty sigma = 0.000020, epsilon = 0.001245
 s14bf                                 16      0.0000       0.00000       A     3.53288e-01     1.18179e+00    ;  uncertainty sigma = 0.000032, epsilon = 0.002346
 h15bf                                  1      0.0000       0.00000       A     1.10672e-01     4.15669e-02    ;  uncertainty sigma = 0.000085, epsilon = 0.000843
 h16bf                                  1      0.0000       0.00000       A     2.42171e-01     8.67682e-02    ;  uncertainty sigma = 0.000031, epsilon = 0.001303
 h17bf                                  1      0.0000       0.00000       A     1.10666e-01     4.15404e-02    ;  uncertainty sigma = 0.000113, epsilon = 0.000907
 c18bf                                  6      0.0000       0.00000       A     3.31531e-01     4.13284e-01    ;  uncertainty sigma = 0.000022, epsilon = 0.000692
 c19bf                                  6      0.0000       0.00000       A     3.31510e-01     4.13232e-01    ;  uncertainty sigma = 0.000021, epsilon = 0.000971
 c20bf                                  6      0.0000       0.00000       A     3.39772e-01     4.51291e-01    ;  uncertainty sigma = 0.000007, epsilon = 0.001369
 n21bf                                  7      0.0000       0.00000       A     3.36491e-01     3.58344e-01    ;  uncertainty sigma = 0.000019, epsilon = 0.001758
 c22bf                                  6      0.0000       0.00000       A     3.39770e-01     4.51225e-01    ;  uncertainty sigma = 0.000009, epsilon = 0.000671
 c23bf                                  6      0.0000       0.00000       A     3.39762e-01     4.51164e-01    ;  uncertainty sigma = 0.000008, epsilon = 0.001424
 c24bf                                  6      0.0000       0.00000       A     3.39770e-01     4.51318e-01    ;  uncertainty sigma = 0.000003, epsilon = 0.000740
 h25bf                                  1      0.0000       0.00000       A     2.42250e-01     8.62902e-02    ;  uncertainty sigma = 0.000037, epsilon = 0.000964
 h26bf                                  1      0.0000       0.00000       A     2.42250e-01     8.62902e-02    ;  uncertainty sigma = 0.000037, epsilon = 0.000964
 h27bf                                  1      0.0000       0.00000       A     2.42218e-01     8.69005e-02    ;  uncertainty sigma = 0.000021, epsilon = 0.000739
 h28bf                                  1      0.0000       0.00000       A     2.42218e-01     8.69005e-02    ;  uncertainty sigma = 0.000021, epsilon = 0.000739
 h29bf                                  1      0.0000       0.00000       A     2.60015e-01     8.68230e-02    ;  uncertainty sigma = 0.000020, epsilon = 0.000739
 h30bf                                  1      0.0000       0.00000       A     2.60015e-01     8.68230e-02    ;  uncertainty sigma = 0.000020, epsilon = 0.000739
 h31bf                                  1      0.0000       0.00000       A     2.42198e-01     8.68693e-02    ;  uncertainty sigma = 0.000014, epsilon = 0.000543
 h32bf                                  1      0.0000       0.00000       A     2.42198e-01     8.68693e-02    ;  uncertainty sigma = 0.000014, epsilon = 0.000543
 h33bf                                  1      0.0000       0.00000       A     2.42198e-01     8.68693e-02    ;  uncertainty sigma = 0.000014, epsilon = 0.000543
 c34bf                                  6      0.0000       0.00000       A     3.31545e-01     4.13066e-01    ;  uncertainty sigma = 0.000011, epsilon = 0.001034
 o35bf                                  8      0.0000       0.00000       A     3.04819e-01     6.12467e-01    ;  uncertainty sigma = 0.000013, epsilon = 0.000996
 n36bf                                  7      0.0000       0.00000       A     3.18136e-01     6.84509e-01    ;  uncertainty sigma = 0.000019, epsilon = 0.001339
 c37bf                                  6      0.0000       0.00000       A     3.39777e-01     4.50876e-01    ;  uncertainty sigma = 0.000006, epsilon = 0.000504
 c38bf                                  6      0.0000       0.00000       A     3.39777e-01     4.50876e-01    ;  uncertainty sigma = 0.000006, epsilon = 0.000504
 h39bf                                  1      0.0000       0.00000       A     2.60016e-01     8.65219e-02    ;  uncertainty sigma = 0.000021, epsilon = 0.000613
 h40bf                                  1      0.0000       0.00000       A     2.60016e-01     8.65219e-02    ;  uncertainty sigma = 0.000021, epsilon = 0.000613
 h41bf                                  1      0.0000       0.00000       A     2.60030e-01     8.70270e-02    ;  uncertainty sigma = 0.000011, epsilon = 0.000538
 h42bf                                  1      0.0000       0.00000       A     2.60020e-01     8.66352e-02    ;  uncertainty sigma = 0.000016, epsilon = 0.000625
 h43bf                                  1      0.0000       0.00000       A     2.60020e-01     8.66352e-02    ;  uncertainty sigma = 0.000016, epsilon = 0.000625
 h44bf                                  1      0.0000       0.00000       A     2.60024e-01     8.67210e-02    ;  uncertainty sigma = 0.000008, epsilon = 0.000629
 h45bf                                  1      0.0000       0.00000       A     2.60024e-01     8.67210e-02    ;  uncertainty sigma = 0.000008, epsilon = 0.000629
 h46bf                                  1      0.0000       0.00000       A     2.42196e-01     8.67627e-02    ;  uncertainty sigma = 0.000011, epsilon = 0.000510
 h47bf                                  1      0.0000       0.00000       A     2.42196e-01     8.67627e-02    ;  uncertainty sigma = 0.000011, epsilon = 0.000510
 h48bf                                  1      0.0000       0.00000       A     2.42196e-01     8.67627e-02    ;  uncertainty sigma = 0.000011, epsilon = 0.000510
 h49bf                                  1      0.0000       0.00000       A     2.42196e-01     8.67627e-02    ;  uncertainty sigma = 0.000011, epsilon = 0.000510
 h50bf                                  1      0.0000       0.00000       A     2.42196e-01     8.67627e-02    ;  uncertainty sigma = 0.000011, epsilon = 0.000510
 h51bf                                  1      0.0000       0.00000       A     2.42196e-01     8.67627e-02    ;  uncertainty sigma = 0.000011, epsilon = 0.000510
 h52bf                                  1      0.0000       0.00000       A     2.42144e-01     8.68216e-02    ;  uncertainty sigma = 0.000035, epsilon = 0.001353
 c53bf                                  6      0.0000       0.00000       A     3.31546e-01     4.12870e-01    ;  uncertainty sigma = 0.000015, epsilon = 0.001641
 c54bf                                  6      0.0000       0.00000       A     3.31528e-01     4.13534e-01    ;  uncertainty sigma = 0.000009, epsilon = 0.001037
 o55bf                                  8      0.0000       0.00000       A     3.15608e-01     3.01953e-01    ;  uncertainty sigma = 0.000014, epsilon = 0.001313
 h56bf                                  1      0.0000       0.00000       A     2.62552e-01     6.69331e-02    ;  uncertainty sigma = 0.000041, epsilon = 0.000626
 c57bf                                  6      0.0000       0.00000       A     3.31508e-01     4.13350e-01    ;  uncertainty sigma = 0.000012, epsilon = 0.000665
 c58bf                                  6      0.0000       0.00000       A     3.31536e-01     4.13184e-01    ;  uncertainty sigma = 0.000009, epsilon = 0.000956
 c59bf                                  6      0.0000       0.00000       A     3.31529e-01     4.13315e-01    ;  uncertainty sigma = 0.000007, epsilon = 0.000770
 c60bf                                  6      0.0000       0.00000       A     3.31524e-01     4.13556e-01    ;  uncertainty sigma = 0.000006, epsilon = 0.000558
 c61bf                                  6      0.0000       0.00000       A     3.31528e-01     4.13119e-01    ;  uncertainty sigma = 0.000005, epsilon = 0.000611
 c62bf                                  6      0.0000       0.00000       A     3.31521e-01     4.13457e-01    ;  uncertainty sigma = 0.000010, epsilon = 0.000665
 h63bf                                  1      0.0000       0.00000       A     2.62562e-01     6.70303e-02    ;  uncertainty sigma = 0.000008, epsilon = 0.000581
 h64bf                                  1      0.0000       0.00000       A     2.62553e-01     6.70965e-02    ;  uncertainty sigma = 0.000010, epsilon = 0.000694
 cl65bf                                17      0.0000       0.00000       A     3.46619e-01     1.10433e+00    ;  uncertainty sigma = 0.000017, epsilon = 0.000824
 h66bf                                  1      0.0000       0.00000       A     2.62564e-01     6.70013e-02    ;  uncertainty sigma = 0.000014, epsilon = 0.000590

[ moleculetype ]
;name             nrexcl
 MOL                   3

[ atoms ]
;       nr            type      resi   res      atom      cgnr      charge          mass ; qtot
         1            c0bf         1   UNL        c0         1     0.70710       12.0110 ; qtot    0.707
         2            n1bf         1   UNL        n1         2    -0.56063       14.0070 ; qtot    0.146
         3            c2bf         1   UNL        c2         3     0.10009       12.0110 ; qtot    0.247
         4            o3bf         1   UNL        o3         4    -0.58253       15.9990 ; qtot   -0.336
         5            c4bf         1   UNL        c4         5     0.10479       12.0110 ; qtot   -0.231
         6            c5bf         1   UNL        c5         6    -0.07514       12.0110 ; qtot   -0.306
         7            c6bf         1   UNL        c6         7    -0.13250       12.0110 ; qtot   -0.439
         8            c7bf         1   UNL        c7         8    -0.06578       12.0110 ; qtot   -0.505
         9            c8bf         1   UNL        c8         9    -0.08740       12.0110 ; qtot   -0.592
        10            n9bf         1   UNL        n9        10    -0.55643       14.0070 ; qtot   -1.148
        11           c10bf         1   UNL       c10        11     0.59414       12.0110 ; qtot   -0.554
        12           c11bf         1   UNL       c11        12     0.37509       12.0110 ; qtot   -0.179
        13           o12bf         1   UNL       o12        13    -0.57698       15.9990 ; qtot   -0.756
        14           n13bf         1   UNL       n13        14    -0.60853       14.0070 ; qtot   -1.365
        15           s14bf         1   UNL       s14        15    -0.11954       32.0670 ; qtot   -1.484
        16           h15bf         1   UNL       h15        16     0.32681        1.0080 ; qtot   -1.157
        17           h16bf         1   UNL       h16        17     0.07715        1.0080 ; qtot   -1.080
        18           h17bf         1   UNL       h17        18     0.33735        1.0080 ; qtot   -0.743
        19           c18bf         1   UNL       c18        19     0.34886       12.0110 ; qtot   -0.394
        20           c19bf         1   UNL       c19        20    -0.15290       12.0110 ; qtot   -0.547
        21           c20bf         1   UNL       c20        21     0.24342       12.0110 ; qtot   -0.304
        22           n21bf         1   UNL       n21        22    -0.71265       14.0070 ; qtot   -1.016
        23           c22bf         1   UNL       c22        23     0.15896       12.0110 ; qtot   -0.857
        24           c23bf         1   UNL       c23        24    -0.11292       12.0110 ; qtot   -0.970
        25           c24bf         1   UNL       c24        25     0.14692       12.0110 ; qtot   -0.823
        26           h25bf         1   UNL       h25        26     0.05218        1.0080 ; qtot   -0.771
        27           h26bf         1   UNL       h26        27     0.05218        1.0080 ; qtot   -0.719
        28           h27bf         1   UNL       h27        28     0.04542        1.0080 ; qtot   -0.673
        29           h28bf         1   UNL       h28        29     0.04542        1.0080 ; qtot   -0.628
        30           h29bf         1   UNL       h29        30     0.06419        1.0080 ; qtot   -0.564
        31           h30bf         1   UNL       h30        31     0.06419        1.0080 ; qtot   -0.500
        32           h31bf         1   UNL       h31        32     0.03530        1.0080 ; qtot   -0.464
        33           h32bf         1   UNL       h32        33     0.03530        1.0080 ; qtot   -0.429
        34           h33bf         1   UNL       h33        34     0.03530        1.0080 ; qtot   -0.394
        35           c34bf         1   UNL       c34        35     0.67193       12.0110 ; qtot    0.278
        36           o35bf         1   UNL       o35        36    -0.60797       15.9990 ; qtot   -0.330
        37           n36bf         1   UNL       n36        37    -0.49029       14.0070 ; qtot   -0.820
        38           c37bf         1   UNL       c37        38     0.08466       12.0110 ; qtot   -0.735
        39           c38bf         1   UNL       c38        39     0.08466       12.0110 ; qtot   -0.651
        40           h39bf         1   UNL       h39        40     0.06150        1.0080 ; qtot   -0.589
        41           h40bf         1   UNL       h40        41     0.06150        1.0080 ; qtot   -0.528
        42           h41bf         1   UNL       h41        42     0.06422        1.0080 ; qtot   -0.464
        43           h42bf         1   UNL       h42        43     0.05208        1.0080 ; qtot   -0.411
        44           h43bf         1   UNL       h43        44     0.05208        1.0080 ; qtot   -0.359
        45           h44bf         1   UNL       h44        45     0.05526        1.0080 ; qtot   -0.304
        46           h45bf         1   UNL       h45        46     0.05526        1.0080 ; qtot   -0.249
        47           h46bf         1   UNL       h46        47     0.04383        1.0080 ; qtot   -0.205
        48           h47bf         1   UNL       h47        48     0.04383        1.0080 ; qtot   -0.161
        49           h48bf         1   UNL       h48        49     0.04383        1.0080 ; qtot   -0.117
        50           h49bf         1   UNL       h49        50     0.04383        1.0080 ; qtot   -0.074
        51           h50bf         1   UNL       h50        51     0.04383        1.0080 ; qtot   -0.030
        52           h51bf         1   UNL       h51        52     0.04383        1.0080 ; qtot    0.014
        53           h52bf         1   UNL       h52        53     0.07881        1.0080 ; qtot    0.093
        54           c53bf         1   UNL       c53        54    -0.04605       12.0110 ; qtot    0.047
        55           c54bf         1   UNL       c54        55    -0.10872       12.0110 ; qtot   -0.062
        56           o55bf         1   UNL       o55        56    -0.16403       15.9990 ; qtot   -0.226
        57           h56bf         1   UNL       h56        57     0.18052        1.0080 ; qtot   -0.045
        58           c57bf         1   UNL       c57        58    -0.11559       12.0110 ; qtot   -0.161
        59           c58bf         1   UNL       c58        59     0.07740       12.0110 ; qtot   -0.084
        60           c59bf         1   UNL       c59        60    -0.11075       12.0110 ; qtot   -0.194
        61           c60bf         1   UNL       c60        61    -0.10094       12.0110 ; qtot   -0.295
        62           c61bf         1   UNL       c61        62     0.01317       12.0110 ; qtot   -0.282
        63           c62bf         1   UNL       c62        63    -0.05931       12.0110 ; qtot   -0.341
        64           h63bf         1   UNL       h63        64     0.15568        1.0080 ; qtot   -0.186
        65           h64bf         1   UNL       h64        65     0.15188        1.0080 ; qtot   -0.034
        66          cl65bf         1   UNL      cl65        66    -0.12133       35.4530 ; qtot   -0.155
        67           h66bf         1   UNL       h66        67     0.15516        1.0080 ; qtot    0.000

[ bonds ]
;       ai        aj funct               r               k
         1         2     1        0.136758   293234.838135    ;  uncertainty r = 0.000091, k = 7.861056
         1         4     1        0.123543   711707.644434    ;  uncertainty r = 0.000096, k = 12.060113
         1        54     1        0.147866   257940.510010    ;  uncertainty r = 0.000122, k = 8.109116
         2         3     1        0.145914   243385.123779    ;  uncertainty r = 0.000068, k = 11.640763
         2        16     1        0.101472   411915.898096    ;  uncertainty r = 0.000057, k = 3.987000
         3         5     1        0.154140   193117.852148    ;  uncertainty r = 0.000237, k = 7.141616
         3         9     1        0.153517   200039.672876    ;  uncertainty r = 0.000082, k = 7.085934
         3        17     1        0.109368   306026.861426    ;  uncertainty r = 0.000050, k = 3.201321
         5         6     1        0.153459   198491.779297    ;  uncertainty r = 0.000127, k = 5.264538
         5        10     1        0.145729   238727.461475    ;  uncertainty r = 0.000067, k = 15.790014
         5        53     1        0.109360   306487.525342    ;  uncertainty r = 0.000054, k = 3.376958
         6         7     1        0.153721   199006.850024    ;  uncertainty r = 0.000168, k = 6.848027
         6        40     1        0.109526   310433.851465    ;  uncertainty r = 0.000043, k = 0.875064
         6        41     1        0.109526   310433.851465    ;  uncertainty r = 0.000043, k = 0.875064
         7         8     1        0.153975   202217.337109    ;  uncertainty r = 0.000087, k = 2.573046
         7        35     1        0.153156   206143.680444    ;  uncertainty r = 0.000070, k = 12.443492
         7        42     1        0.109633   309151.735352    ;  uncertainty r = 0.000051, k = 6.503762
         8         9     1        0.153315   207912.240186    ;  uncertainty r = 0.000063, k = 5.403351
         8        43     1        0.109602   308125.501074    ;  uncertainty r = 0.000021, k = 1.819146
         8        44     1        0.109602   308125.501074    ;  uncertainty r = 0.000021, k = 1.819146
         9        45     1        0.109620   309910.953613    ;  uncertainty r = 0.000024, k = 1.009960
         9        46     1        0.109620   309910.953613    ;  uncertainty r = 0.000024, k = 1.009960
        10        11     1        0.136254   291452.475586    ;  uncertainty r = 0.000129, k = 17.867731
        10        18     1        0.101616   410581.507520    ;  uncertainty r = 0.000093, k = 3.750123
        11        12     1        0.147883   259563.418848    ;  uncertainty r = 0.000125, k = 27.680344
        11        13     1        0.123538   703630.001367    ;  uncertainty r = 0.000115, k = 12.098945
        12        14     1        0.130310   434161.095312    ;  uncertainty r = 0.000085, k = 15.053236
        12        15     1        0.175563   155788.944214    ;  uncertainty r = 0.000188, k = 10.470577
        14        19     1        0.137602   299978.345996    ;  uncertainty r = 0.000211, k = 8.739575
        15        20     1        0.173396   184345.625244    ;  uncertainty r = 0.000110, k = 8.530767
        19        20     1        0.137286   397473.794482    ;  uncertainty r = 0.000034, k = 9.608965
        19        24     1        0.149948   244144.622949    ;  uncertainty r = 0.000108, k = 7.193396
        20        21     1        0.150719   237383.826465    ;  uncertainty r = 0.000089, k = 11.691948
        21        22     1        0.146397   258698.068359    ;  uncertainty r = 0.000045, k = 12.802743
        21        26     1        0.110180   303656.992139    ;  uncertainty r = 0.000048, k = 3.959665
        21        27     1        0.110180   303656.992139    ;  uncertainty r = 0.000048, k = 3.959665
        22        23     1        0.146774   246527.975830    ;  uncertainty r = 0.000088, k = 8.191406
        22        25     1        0.145874   240551.449512    ;  uncertainty r = 0.000055, k = 4.989744
        23        24     1        0.153862   211171.503149    ;  uncertainty r = 0.000061, k = 10.297044
        23        28     1        0.109933   305388.127246    ;  uncertainty r = 0.000023, k = 3.768152
        23        29     1        0.109933   305388.127246    ;  uncertainty r = 0.000023, k = 3.768152
        24        30     1        0.109729   310887.467139    ;  uncertainty r = 0.000009, k = 2.383701
        24        31     1        0.109729   310887.467139    ;  uncertainty r = 0.000009, k = 2.383701
        25        32     1        0.109858   306972.960254    ;  uncertainty r = 0.000009, k = 1.032628
        25        33     1        0.109858   306972.960254    ;  uncertainty r = 0.000009, k = 1.032628
        25        34     1        0.109858   306972.960254    ;  uncertainty r = 0.000009, k = 1.032628
        35        36     1        0.123614   736987.492969    ;  uncertainty r = 0.000035, k = 11.451192
        35        37     1        0.137582   365085.461719    ;  uncertainty r = 0.000056, k = 20.353979
        37        38     1        0.145904   250764.556738    ;  uncertainty r = 0.000013, k = 6.211512
        37        39     1        0.145904   250764.556738    ;  uncertainty r = 0.000013, k = 6.211512
        38        47     1        0.109437   311080.731982    ;  uncertainty r = 0.000014, k = 1.257584
        38        48     1        0.109437   311080.731982    ;  uncertainty r = 0.000014, k = 1.257584
        38        49     1        0.109437   311080.731982    ;  uncertainty r = 0.000014, k = 1.257584
        39        50     1        0.109437   311080.731982    ;  uncertainty r = 0.000014, k = 1.257584
        39        51     1        0.109437   311080.731982    ;  uncertainty r = 0.000014, k = 1.257584
        39        52     1        0.109437   311080.731982    ;  uncertainty r = 0.000014, k = 1.257584
        54        55     1        0.136740   408816.178223    ;  uncertainty r = 0.000091, k = 5.626273
        54        56     1        0.138671   267689.837793    ;  uncertainty r = 0.000117, k = 11.556736
        55        57     1        0.108154   338940.109473    ;  uncertainty r = 0.000016, k = 1.945552
        55        58     1        0.144225   293204.193604    ;  uncertainty r = 0.000049, k = 7.956996
        56        59     1        0.137314   301112.091504    ;  uncertainty r = 0.000039, k = 9.497330
        58        59     1        0.141020   370132.360645    ;  uncertainty r = 0.000026, k = 6.518231
        58        63     1        0.140361   362210.442871    ;  uncertainty r = 0.000050, k = 6.971604
        59        60     1        0.138944   366632.653027    ;  uncertainty r = 0.000026, k = 4.216586
        60        61     1        0.139300   379354.576953    ;  uncertainty r = 0.000043, k = 5.244763
        60        64     1        0.108748   336902.758887    ;  uncertainty r = 0.000012, k = 0.985521
        61        62     1        0.140869   343413.649219    ;  uncertainty r = 0.000040, k = 1.545844
        61        65     1        0.108665   335591.862451    ;  uncertainty r = 0.000020, k = 1.407534
        62        63     1        0.138950   358364.349902    ;  uncertainty r = 0.000045, k = 1.862055
        62        66     1        0.176043   195583.447290    ;  uncertainty r = 0.000040, k = 4.585010
        63        67     1        0.108715   335454.396191    ;  uncertainty r = 0.000019, k = 1.161831

[ angles ]
;       ai        aj        ak funct           theta             cth
         1         2         3     1      116.563515      443.357481    ;  uncertainty theta = 0.004814, k = 0.062238
         1         2        16     1      115.765175      344.819544    ;  uncertainty theta = 0.004510, k = 0.136237
         1        54        55     1      130.303543      272.781944    ;  uncertainty theta = 0.009353, k = 0.214848
         1        54        56     1      114.725266      375.848600    ;  uncertainty theta = 0.006184, k = 0.113986
         2         1         4     1      124.501511      809.070211    ;  uncertainty theta = 0.003974, k = 0.037743
         2         1        54     1      114.372009      463.634712    ;  uncertainty theta = 0.003084, k = 0.169978
         2         3         5     1      109.266029      582.064780    ;  uncertainty theta = 0.003845, k = 0.160174
         2         3         9     1      110.880936      636.432265    ;  uncertainty theta = 0.001536, k = 0.067741
         2         3        17     1      105.320694      444.715832    ;  uncertainty theta = 0.003390, k = 0.156662
         3         2        16     1      112.811035      323.721486    ;  uncertainty theta = 0.001639, k = 0.201457
         3         5         6     1      109.667992      544.061795    ;  uncertainty theta = 0.003115, k = 0.179796
         3         5        10     1      109.139809      584.336945    ;  uncertainty theta = 0.004597, k = 0.175548
         3         5        53     1      107.719704      383.890491    ;  uncertainty theta = 0.001782, k = 0.084960
         3         9         8     1      109.779907      550.690909    ;  uncertainty theta = 0.003385, k = 0.118415
         3         9        45     1      107.482468      382.670392    ;  uncertainty theta = 0.000838, k = 0.034248
         3         9        46     1      107.482468      382.670392    ;  uncertainty theta = 0.000838, k = 0.034248
         4         1        54     1      121.185646      489.067311    ;  uncertainty theta = 0.004959, k = 0.135854
         5         3         9     1      109.369690      551.826417    ;  uncertainty theta = 0.001193, k = 0.238487
         5         3        17     1      107.458580      381.774359    ;  uncertainty theta = 0.002620, k = 0.089167
         5         6         7     1      110.155777      537.181906    ;  uncertainty theta = 0.003354, k = 0.119115
         5         6        40     1      107.460854      385.063155    ;  uncertainty theta = 0.000653, k = 0.058631
         5         6        41     1      107.460854      385.063155    ;  uncertainty theta = 0.000653, k = 0.058631
         5        10        11     1      116.256470      438.591490    ;  uncertainty theta = 0.006636, k = 0.182671
         5        10        18     1      112.697777      315.756941    ;  uncertainty theta = 0.001526, k = 0.296885
         6         5        10     1      110.224083      630.160670    ;  uncertainty theta = 0.002121, k = 0.087819
         6         5        53     1      108.606544      408.575938    ;  uncertainty theta = 0.001745, k = 0.034990
         6         7         8     1      109.900391      583.567575    ;  uncertainty theta = 0.002330, k = 0.083135
         6         7        35     1      108.569168      489.144113    ;  uncertainty theta = 0.003757, k = 0.073146
         6         7        42     1      107.332260      401.082169    ;  uncertainty theta = 0.002516, k = 0.077903
         7         6        40     1      108.676857      396.198101    ;  uncertainty theta = 0.000795, k = 0.026396
         7         6        41     1      108.676857      396.198101    ;  uncertainty theta = 0.000795, k = 0.026396
         7         8         9     1      109.786987      580.835360    ;  uncertainty theta = 0.001913, k = 0.141340
         7         8        43     1      108.292625      386.614311    ;  uncertainty theta = 0.000735, k = 0.019139
         7         8        44     1      108.292625      386.614311    ;  uncertainty theta = 0.000735, k = 0.019139
         7        35        36     1      123.648819      547.647652    ;  uncertainty theta = 0.003749, k = 0.250532
         7        35        37     1      114.135170      399.306701    ;  uncertainty theta = 0.002339, k = 0.216014
         8         7        35     1      108.943726      496.415422    ;  uncertainty theta = 0.001979, k = 0.055108
         8         7        42     1      107.694107      403.879791    ;  uncertainty theta = 0.001685, k = 0.082263
         8         9        45     1      108.763489      400.577939    ;  uncertainty theta = 0.001541, k = 0.036918
         8         9        46     1      108.763489      400.577939    ;  uncertainty theta = 0.001541, k = 0.036918
         9         3        17     1      108.904625      410.773917    ;  uncertainty theta = 0.001612, k = 0.071323
         9         8        43     1      108.482079      402.739687    ;  uncertainty theta = 0.000859, k = 0.036544
         9         8        44     1      108.482079      402.739687    ;  uncertainty theta = 0.000859, k = 0.036544
        10         5        53     1      105.246643      446.517028    ;  uncertainty theta = 0.004204, k = 0.177955
        10        11        12     1      113.070839      435.784547    ;  uncertainty theta = 0.006920, k = 0.140238
        10        11        13     1      124.950012      804.911939    ;  uncertainty theta = 0.003994, k = 0.055585
        11        10        18     1      116.250000      347.593576    ;  uncertainty theta = 0.004441, k = 0.081627
        11        12        14     1      122.197128      370.860213    ;  uncertainty theta = 0.005964, k = 0.255742
        11        12        15     1      118.123451      287.405674    ;  uncertainty theta = 0.005808, k = 0.204925
        12        11        13     1      120.002197      453.227350    ;  uncertainty theta = 0.007890, k = 0.121396
        12        14        19     1      111.845421      637.059456    ;  uncertainty theta = 0.004719, k = 0.108197
        12        15        20     1       89.170425     1132.634133    ;  uncertainty theta = 0.004755, k = 0.314956
        14        12        15     1      116.136452      646.965173    ;  uncertainty theta = 0.002239, k = 0.246117
        14        19        20     1      115.716957      690.992937    ;  uncertainty theta = 0.003156, k = 0.158093
        14        19        24     1      124.040390      433.932787    ;  uncertainty theta = 0.004363, k = 0.201750
        15        20        19     1      109.672325      507.238336    ;  uncertainty theta = 0.002750, k = 0.124654
        15        20        21     1      124.458923      318.004972    ;  uncertainty theta = 0.003631, k = 0.249957
        19        20        21     1      122.449425      322.713122    ;  uncertainty theta = 0.004108, k = 0.373686
        19        24        23     1      106.939438      596.797522    ;  uncertainty theta = 0.003584, k = 0.044131
        19        24        30     1      108.548073      392.911220    ;  uncertainty theta = 0.001454, k = 0.086868
        19        24        31     1      108.548073      392.911220    ;  uncertainty theta = 0.001454, k = 0.086868
        20        19        24     1      120.498146      325.489963    ;  uncertainty theta = 0.004995, k = 0.174544
        20        21        22     1      109.701111      686.046080    ;  uncertainty theta = 0.001850, k = 0.201796
        20        21        26     1      108.925659      409.463193    ;  uncertainty theta = 0.001395, k = 0.154098
        20        21        27     1      108.925659      409.463193    ;  uncertainty theta = 0.001395, k = 0.154098
        21        22        23     1      108.084244      491.834927    ;  uncertainty theta = 0.003315, k = 0.091086
        21        22        25     1      107.580322      510.743273    ;  uncertainty theta = 0.002764, k = 0.057722
        22        21        26     1      109.358154      448.409487    ;  uncertainty theta = 0.001850, k = 0.074310
        22        21        27     1      109.358154      448.409487    ;  uncertainty theta = 0.001850, k = 0.074310
        22        23        24     1      112.487526      700.788206    ;  uncertainty theta = 0.002677, k = 0.118016
        22        23        28     1      108.920166      453.721493    ;  uncertainty theta = 0.001526, k = 0.064884
        22        23        29     1      108.920166      453.721493    ;  uncertainty theta = 0.001526, k = 0.064884
        22        25        32     1      110.438461      450.024231    ;  uncertainty theta = 0.001821, k = 0.029766
        22        25        33     1      110.438461      450.024231    ;  uncertainty theta = 0.001821, k = 0.029766
        22        25        34     1      110.438461      450.024231    ;  uncertainty theta = 0.001821, k = 0.029766
        23        22        25     1      108.245483      523.945384    ;  uncertainty theta = 0.002945, k = 0.105030
        23        24        30     1      108.704140      394.566535    ;  uncertainty theta = 0.001154, k = 0.056791
        23        24        31     1      108.704140      394.566535    ;  uncertainty theta = 0.001154, k = 0.056791
        24        23        28     1      108.660522      413.983038    ;  uncertainty theta = 0.001451, k = 0.079858
        24        23        29     1      108.660522      413.983038    ;  uncertainty theta = 0.001451, k = 0.079858
        26        21        27     1      104.710770      316.430897    ;  uncertainty theta = 0.002647, k = 0.058044
        28        23        29     1      105.686386      320.062785    ;  uncertainty theta = 0.001993, k = 0.069558
        30        24        31     1      105.018166      307.701164    ;  uncertainty theta = 0.001306, k = 0.028790
        32        25        33     1      106.707680      321.292396    ;  uncertainty theta = 0.002211, k = 0.028957
        32        25        34     1      106.707680      321.292396    ;  uncertainty theta = 0.002211, k = 0.028957
        33        25        34     1      106.707680      321.292396    ;  uncertainty theta = 0.002211, k = 0.028957
        35         7        42     1      106.313622      362.200292    ;  uncertainty theta = 0.002423, k = 0.146630
        35        37        38     1      116.622971      385.561065    ;  uncertainty theta = 0.001770, k = 0.124804
        35        37        39     1      116.622971      385.561065    ;  uncertainty theta = 0.001770, k = 0.124804
        36        35        37     1      123.396584      724.695474    ;  uncertainty theta = 0.001503, k = 0.174408
        37        38        47     1      109.352982      479.364486    ;  uncertainty theta = 0.001224, k = 0.042687
        37        38        48     1      109.352982      479.364486    ;  uncertainty theta = 0.001224, k = 0.042687
        37        38        49     1      109.352982      479.364486    ;  uncertainty theta = 0.001224, k = 0.042687
        37        39        50     1      109.352982      479.364486    ;  uncertainty theta = 0.001224, k = 0.042687
        37        39        51     1      109.352982      479.364486    ;  uncertainty theta = 0.001224, k = 0.042687
        37        39        52     1      109.352982      479.364486    ;  uncertainty theta = 0.001224, k = 0.042687
        38        37        39     1      118.428368      428.731644    ;  uncertainty theta = 0.003391, k = 0.223109
        40         6        41     1      105.326035      326.596294    ;  uncertainty theta = 0.002223, k = 0.051835
        43         8        44     1      104.655197      318.642921    ;  uncertainty theta = 0.002537, k = 0.034949
        45         9        46     1      105.089188      316.666285    ;  uncertainty theta = 0.002339, k = 0.045277
        47        38        48     1      106.824196      329.099123    ;  uncertainty theta = 0.001131, k = 0.027019
        47        38        49     1      106.824196      329.099123    ;  uncertainty theta = 0.001131, k = 0.027019
        48        38        49     1      106.824196      329.099123    ;  uncertainty theta = 0.001131, k = 0.027019
        50        39        51     1      106.824196      329.099123    ;  uncertainty theta = 0.001131, k = 0.027019
        50        39        52     1      106.824196      329.099123    ;  uncertainty theta = 0.001131, k = 0.027019
        51        39        52     1      106.824196      329.099123    ;  uncertainty theta = 0.001131, k = 0.027019
        54        55        57     1      123.780212      239.360938    ;  uncertainty theta = 0.004612, k = 0.096496
        54        55        58     1      106.128746      824.117633    ;  uncertainty theta = 0.003644, k = 0.108544
        54        56        59     1      107.710594     1021.809590    ;  uncertainty theta = 0.002912, k = 0.079529
        55        54        56     1      114.246414      624.780065    ;  uncertainty theta = 0.004276, k = 0.149994
        55        58        59     1      105.258667      680.067715    ;  uncertainty theta = 0.001841, k = 0.075605
        55        58        63     1      133.414383      373.051903    ;  uncertainty theta = 0.001478, k = 0.111590
        56        59        58     1      111.047752      690.953099    ;  uncertainty theta = 0.003943, k = 0.121584
        56        59        60     1      124.709267      428.656661    ;  uncertainty theta = 0.002608, k = 0.084283
        57        55        58     1      125.749657      251.813742    ;  uncertainty theta = 0.004026, k = 0.110464
        58        59        60     1      121.789047      359.773883    ;  uncertainty theta = 0.002167, k = 0.163838
        58        63        62     1      116.574951      521.453473    ;  uncertainty theta = 0.003759, k = 0.115637
        58        63        67     1      122.066063      289.522572    ;  uncertainty theta = 0.001889, k = 0.050840
        59        58        63     1      116.724564      394.217890    ;  uncertainty theta = 0.003023, k = 0.114966
        59        60        61     1      116.278404      518.558394    ;  uncertainty theta = 0.001995, k = 0.127197
        59        60        64     1      122.728416      292.235667    ;  uncertainty theta = 0.003267, k = 0.027584
        60        61        62     1      121.448318      509.324271    ;  uncertainty theta = 0.001760, k = 0.097503
        60        61        65     1      120.256790      281.506601    ;  uncertainty theta = 0.002186, k = 0.053667
        61        60        64     1      121.241379      276.038149    ;  uncertainty theta = 0.001813, k = 0.038827
        61        62        63     1      123.763939      388.607961    ;  uncertainty theta = 0.002924, k = 0.043419
        61        62        66     1      119.356178      454.951073    ;  uncertainty theta = 0.001655, k = 0.093014
        62        61        65     1      120.139542      286.812606    ;  uncertainty theta = 0.001832, k = 0.062531
        62        63        67     1      121.275795      288.654949    ;  uncertainty theta = 0.002746, k = 0.094290
        63        62        66     1      120.227257      440.142455    ;  uncertainty theta = 0.001604, k = 0.067012

[ dihedrals ] ; propers for gromacs 4.5 or higher, use funct 9
;       ai        aj        ak        al funct           phase               k        pn
         1         2         3         5     9        0.000000        0.823745         1    ;  uncertainty k = 0.370423
         1         2         3         5     9      180.000000        0.116137         2    ;  uncertainty k = 0.346828
         1         2         3         5     9        0.000000       -0.043365         3    ;  uncertainty k = 0.063832
         1         2         3         5     9      180.000000        0.465497         4    ;  uncertainty k = 0.250256
         1         2         3         9     9        0.000000        0.536344         1    ;  uncertainty k = 0.361995
         1         2         3         9     9      180.000000       -0.063315         2    ;  uncertainty k = 0.432500
         1         2         3         9     9        0.000000        0.259078         3    ;  uncertainty k = 0.065155
         1         2         3         9     9      180.000000        0.351203         4    ;  uncertainty k = 0.203566
         1         2         3        17     9        0.000000        1.108498         1    ;  uncertainty k = 0.302289
         1         2         3        17     9      180.000000       -0.461209         2    ;  uncertainty k = 0.200738
         1         2         3        17     9        0.000000        0.093612         3    ;  uncertainty k = 0.148944
         1         2         3        17     9      180.000000        0.197732         4    ;  uncertainty k = 0.079404
         1        54        55        57     9        0.000000       -0.191475         1    ;  uncertainty k = 1.130375
         1        54        55        57     9      180.000000        7.766685         2    ;  uncertainty k = 0.529932
         1        54        55        57     9        0.000000        1.508721         3    ;  uncertainty k = 0.159296
         1        54        55        57     9      180.000000        0.553330         4    ;  uncertainty k = 0.266514
         1        54        55        58     9        0.000000        0.951210         1    ;  uncertainty k = 1.133237
         1        54        55        58     9      180.000000       13.092191         2    ;  uncertainty k = 0.249221
         1        54        55        58     9        0.000000        1.933931         3    ;  uncertainty k = 0.325500
         1        54        55        58     9      180.000000        1.064507         4    ;  uncertainty k = 0.201468
         1        54        56        59     9        0.000000        1.816593         1    ;  uncertainty k = 1.308763
         1        54        56        59     9      180.000000        5.231889         2    ;  uncertainty k = 0.495915
         1        54        56        59     9        0.000000        1.486320         3    ;  uncertainty k = 0.243496
         1        54        56        59     9      180.000000        0.615344         4    ;  uncertainty k = 0.319520
         2         1        54        55     9        0.000000        0.806814         1    ;  uncertainty k = 0.717059
         2         1        54        55     9      180.000000        1.832173         2    ;  uncertainty k = 0.174002
         2         1        54        55     9        0.000000        1.186669         3    ;  uncertainty k = 0.264610
         2         1        54        55     9      180.000000       -0.438841         4    ;  uncertainty k = 0.119009
         2         1        54        56     9        0.000000        3.392276         1    ;  uncertainty k = 1.092656
         2         1        54        56     9      180.000000        4.569455         2    ;  uncertainty k = 0.670889
         2         1        54        56     9        0.000000        0.055893         3    ;  uncertainty k = 0.363245
         2         1        54        56     9      180.000000       -0.338822         4    ;  uncertainty k = 0.128173
         2         3         5         6     9        0.000000       -2.550607         1    ;  uncertainty k = 0.384413
         2         3         5         6     9      180.000000       -0.330555         2    ;  uncertainty k = 0.405890
         2         3         5         6     9        0.000000        0.502984         3    ;  uncertainty k = 0.221243
         2         3         5         6     9      180.000000       -0.058014         4    ;  uncertainty k = 0.141621
         2         3         5        10     9        0.000000        0.296835         1    ;  uncertainty k = 0.935954
         2         3         5        10     9      180.000000       -1.198498         2    ;  uncertainty k = 0.791526
         2         3         5        10     9        0.000000        0.342268         3    ;  uncertainty k = 0.401220
         2         3         5        10     9      180.000000       -0.040957         4    ;  uncertainty k = 0.357898
         2         3         5        53     9        0.000000        0.006741         1    ;  uncertainty k = 1.011302
         2         3         5        53     9      180.000000       -1.396523         2    ;  uncertainty k = 0.517653
         2         3         5        53     9        0.000000        0.480098         3    ;  uncertainty k = 0.245177
         2         3         5        53     9      180.000000       -0.270373         4    ;  uncertainty k = 0.122814
         2         3         9         8     9        0.000000       -4.110100         1    ;  uncertainty k = 0.710972
         2         3         9         8     9      180.000000        0.175496         2    ;  uncertainty k = 0.165668
         2         3         9         8     9        0.000000        0.826602         3    ;  uncertainty k = 0.091070
         2         3         9         8     9      180.000000       -0.129728         4    ;  uncertainty k = 0.124419
         2         3         9        45     9        0.000000       -0.462471         1    ;  uncertainty k = 0.581085
         2         3         9        45     9      180.000000       -1.362021         2    ;  uncertainty k = 0.455013
         2         3         9        45     9        0.000000        0.922308         3    ;  uncertainty k = 0.132148
         2         3         9        45     9      180.000000       -0.303017         4    ;  uncertainty k = 0.069479
         2         3         9        46     9        0.000000       -0.462471         1    ;  uncertainty k = 0.581085
         2         3         9        46     9      180.000000       -1.362021         2    ;  uncertainty k = 0.455013
         2         3         9        46     9        0.000000        0.922308         3    ;  uncertainty k = 0.132148
         2         3         9        46     9      180.000000       -0.303017         4    ;  uncertainty k = 0.069479
         3         2         1         4     9        0.000000        3.771549         1    ;  uncertainty k = 1.169380
         3         2         1         4     9      180.000000       11.882109         2    ;  uncertainty k = 0.198467
         3         2         1         4     9        0.000000        0.471513         3    ;  uncertainty k = 0.314446
         3         2         1         4     9      180.000000       -0.042894         4    ;  uncertainty k = 0.260525
         3         2         1        54     9        0.000000        4.100440         1    ;  uncertainty k = 1.741438
         3         2         1        54     9      180.000000       13.067301         2    ;  uncertainty k = 0.277833
         3         2         1        54     9        0.000000        1.246379         3    ;  uncertainty k = 0.428079
         3         2         1        54     9      180.000000       -1.399527         4    ;  uncertainty k = 0.515138
         3         5         6         7     9        0.000000       -1.432043         1    ;  uncertainty k = 2.723866
         3         5         6         7     9      180.000000       -1.362097         2    ;  uncertainty k = 1.245063
         3         5         6         7     9        0.000000        0.525462         3    ;  uncertainty k = 0.494978
         3         5         6         7     9      180.000000       -1.218112         4    ;  uncertainty k = 0.206883
         3         5         6        40     9        0.000000       -0.886903         1    ;  uncertainty k = 0.513869
         3         5         6        40     9      180.000000       -0.615121         2    ;  uncertainty k = 0.172414
         3         5         6        40     9        0.000000        0.126560         3    ;  uncertainty k = 0.061474
         3         5         6        40     9      180.000000       -0.135971         4    ;  uncertainty k = 0.112984
         3         5         6        41     9        0.000000       -0.886903         1    ;  uncertainty k = 0.513869
         3         5         6        41     9      180.000000       -0.615121         2    ;  uncertainty k = 0.172414
         3         5         6        41     9        0.000000        0.126560         3    ;  uncertainty k = 0.061474
         3         5         6        41     9      180.000000       -0.135971         4    ;  uncertainty k = 0.112984
         3         5        10        11     9        0.000000        0.801664         1    ;  uncertainty k = 0.611360
         3         5        10        11     9      180.000000        0.224942         2    ;  uncertainty k = 0.175537
         3         5        10        11     9        0.000000       -0.090575         3    ;  uncertainty k = 0.112118
         3         5        10        11     9      180.000000        0.456882         4    ;  uncertainty k = 0.212048
         3         5        10        18     9        0.000000        2.694005         1    ;  uncertainty k = 0.605514
         3         5        10        18     9      180.000000       -1.549746         2    ;  uncertainty k = 0.401950
         3         5        10        18     9        0.000000        0.520127         3    ;  uncertainty k = 0.248975
         3         5        10        18     9      180.000000        0.165581         4    ;  uncertainty k = 0.147886
         3         9         8         7     9        0.000000       -5.558220         1    ;  uncertainty k = 0.751285
         3         9         8         7     9      180.000000       -1.078025         2    ;  uncertainty k = 0.646630
         3         9         8         7     9        0.000000        1.432498         3    ;  uncertainty k = 0.146612
         3         9         8         7     9      180.000000       -1.199519         4    ;  uncertainty k = 0.214568
         3         9         8        43     9        0.000000       -1.163618         1    ;  uncertainty k = 0.422435
         3         9         8        43     9      180.000000       -0.678297         2    ;  uncertainty k = 0.279026
         3         9         8        43     9        0.000000        0.405858         3    ;  uncertainty k = 0.184323
         3         9         8        43     9      180.000000       -0.085376         4    ;  uncertainty k = 0.031501
         3         9         8        44     9        0.000000       -1.163618         1    ;  uncertainty k = 0.422435
         3         9         8        44     9      180.000000       -0.678297         2    ;  uncertainty k = 0.279026
         3         9         8        44     9        0.000000        0.405858         3    ;  uncertainty k = 0.184323
         3         9         8        44     9      180.000000       -0.085376         4    ;  uncertainty k = 0.031501
         4         1         2        16     9        0.000000        2.293079         1    ;  uncertainty k = 0.999533
         4         1         2        16     9      180.000000       13.836509         2    ;  uncertainty k = 0.148643
         4         1         2        16     9        0.000000        1.703038         3    ;  uncertainty k = 0.280859
         4         1         2        16     9      180.000000       -0.530759         4    ;  uncertainty k = 0.314250
         4         1        54        55     9        0.000000       -1.268073         1    ;  uncertainty k = 0.863211
         4         1        54        55     9      180.000000        2.385360         2    ;  uncertainty k = 0.346962
         4         1        54        55     9        0.000000        0.193246         3    ;  uncertainty k = 0.264088
         4         1        54        55     9      180.000000        0.200435         4    ;  uncertainty k = 0.101060
         4         1        54        56     9        0.000000       -0.619379         1    ;  uncertainty k = 0.901102
         4         1        54        56     9      180.000000        6.464869         2    ;  uncertainty k = 0.273642
         4         1        54        56     9        0.000000        1.060631         3    ;  uncertainty k = 0.290406
         4         1        54        56     9      180.000000        0.182353         4    ;  uncertainty k = 0.075347
         5         3         2        16     9        0.000000        2.515781         1    ;  uncertainty k = 0.596372
         5         3         2        16     9      180.000000       -1.657764         2    ;  uncertainty k = 0.420527
         5         3         2        16     9        0.000000        0.513438         3    ;  uncertainty k = 0.245795
         5         3         2        16     9      180.000000        0.144921         4    ;  uncertainty k = 0.131225
         5         3         9         8     9        0.000000       -4.818762         1    ;  uncertainty k = 1.448759
         5         3         9         8     9      180.000000        0.199092         2    ;  uncertainty k = 0.737056
         5         3         9         8     9        0.000000        0.932359         3    ;  uncertainty k = 0.333912
         5         3         9         8     9      180.000000       -1.204299         4    ;  uncertainty k = 0.156767
         5         3         9        45     9        0.000000       -0.742690         1    ;  uncertainty k = 0.623618
         5         3         9        45     9      180.000000       -0.673217         2    ;  uncertainty k = 0.263858
         5         3         9        45     9        0.000000        0.105324         3    ;  uncertainty k = 0.045878
         5         3         9        45     9      180.000000       -0.123797         4    ;  uncertainty k = 0.091809
         5         3         9        46     9        0.000000       -0.742690         1    ;  uncertainty k = 0.623618
         5         3         9        46     9      180.000000       -0.673217         2    ;  uncertainty k = 0.263858
         5         3         9        46     9        0.000000        0.105324         3    ;  uncertainty k = 0.045878
         5         3         9        46     9      180.000000       -0.123797         4    ;  uncertainty k = 0.091809
         5         6         7         8     9        0.000000       -3.685858         1    ;  uncertainty k = 1.543474
         5         6         7         8     9      180.000000       -0.285065         2    ;  uncertainty k = 0.572018
         5         6         7         8     9        0.000000        0.981156         3    ;  uncertainty k = 0.134158
         5         6         7         8     9      180.000000       -1.148830         4    ;  uncertainty k = 0.219793
         5         6         7        35     9        0.000000       -1.988880         1    ;  uncertainty k = 0.819118
         5         6         7        35     9      180.000000       -0.959087         2    ;  uncertainty k = 0.272882
         5         6         7        35     9        0.000000        0.443360         3    ;  uncertainty k = 0.318150
         5         6         7        35     9      180.000000        0.183680         4    ;  uncertainty k = 0.094585
         5         6         7        42     9        0.000000       -1.930129         1    ;  uncertainty k = 0.461178
         5         6         7        42     9      180.000000       -0.446539         2    ;  uncertainty k = 0.219585
         5         6         7        42     9        0.000000        0.087588         3    ;  uncertainty k = 0.087001
         5         6         7        42     9      180.000000       -0.164536         4    ;  uncertainty k = 0.141862
         5        10        11        12     9        0.000000        3.955843         1    ;  uncertainty k = 1.375018
         5        10        11        12     9      180.000000       12.511310         2    ;  uncertainty k = 0.157161
         5        10        11        12     9        0.000000        1.265290         3    ;  uncertainty k = 0.258416
         5        10        11        12     9      180.000000       -1.434391         4    ;  uncertainty k = 0.492912
         5        10        11        13     9        0.000000        4.208886         1    ;  uncertainty k = 1.051963
         5        10        11        13     9      180.000000       13.258813         2    ;  uncertainty k = 0.102362
         5        10        11        13     9        0.000000        0.423146         3    ;  uncertainty k = 0.283109
         5        10        11        13     9      180.000000       -0.345444         4    ;  uncertainty k = 0.133898
         6         5         3         9     9        0.000000       -1.525741         1    ;  uncertainty k = 2.512448
         6         5         3         9     9      180.000000        0.533029         2    ;  uncertainty k = 0.954306
         6         5         3         9     9        0.000000        0.431514         3    ;  uncertainty k = 0.503330
         6         5         3         9     9      180.000000       -1.115752         4    ;  uncertainty k = 0.263236
         6         5         3        17     9        0.000000       -1.271533         1    ;  uncertainty k = 0.305361
         6         5         3        17     9      180.000000       -0.211575         2    ;  uncertainty k = 0.240849
         6         5         3        17     9        0.000000       -0.232308         3    ;  uncertainty k = 0.062388
         6         5         3        17     9      180.000000       -0.144486         4    ;  uncertainty k = 0.051055
         6         5        10        11     9        0.000000        0.365179         1    ;  uncertainty k = 0.381956
         6         5        10        11     9      180.000000        0.212131         2    ;  uncertainty k = 0.301001
         6         5        10        11     9        0.000000        0.181087         3    ;  uncertainty k = 0.072733
         6         5        10        11     9      180.000000        0.343018         4    ;  uncertainty k = 0.126684
         6         5        10        18     9        0.000000        0.944364         1    ;  uncertainty k = 0.463017
         6         5        10        18     9      180.000000       -0.511752         2    ;  uncertainty k = 0.348976
         6         5        10        18     9        0.000000        0.327111         3    ;  uncertainty k = 0.178626
         6         5        10        18     9      180.000000        0.059980         4    ;  uncertainty k = 0.085878
         6         7         8         9     9        0.000000       -5.487464         1    ;  uncertainty k = 0.622101
         6         7         8         9     9      180.000000        0.630063         2    ;  uncertainty k = 0.545359
         6         7         8         9     9        0.000000        1.367198         3    ;  uncertainty k = 0.173804
         6         7         8         9     9      180.000000       -1.032851         4    ;  uncertainty k = 0.273094
         6         7         8        43     9        0.000000       -1.226844         1    ;  uncertainty k = 0.266748
         6         7         8        43     9      180.000000       -0.345485         2    ;  uncertainty k = 0.101300
         6         7         8        43     9        0.000000        0.394880         3    ;  uncertainty k = 0.108227
         6         7         8        43     9      180.000000       -0.070781         4    ;  uncertainty k = 0.048007
         6         7         8        44     9        0.000000       -1.226844         1    ;  uncertainty k = 0.266748
         6         7         8        44     9      180.000000       -0.345485         2    ;  uncertainty k = 0.101300
         6         7         8        44     9        0.000000        0.394880         3    ;  uncertainty k = 0.108227
         6         7         8        44     9      180.000000       -0.070781         4    ;  uncertainty k = 0.048007
         6         7        35        36     9        0.000000       -1.170185         1    ;  uncertainty k = 0.334655
         6         7        35        36     9      180.000000        4.880266         2    ;  uncertainty k = 0.323686
         6         7        35        36     9        0.000000        1.279706         3    ;  uncertainty k = 0.118363
         6         7        35        36     9      180.000000        0.575624         4    ;  uncertainty k = 0.083005
         6         7        35        37     9        0.000000       -1.631697         1    ;  uncertainty k = 0.279350
         6         7        35        37     9      180.000000        3.392199         2    ;  uncertainty k = 0.510159
         6         7        35        37     9        0.000000        0.814553         3    ;  uncertainty k = 0.127255
         6         7        35        37     9      180.000000        0.128487         4    ;  uncertainty k = 0.053904
         7         6         5        10     9        0.000000       -2.823350         1    ;  uncertainty k = 0.488930
         7         6         5        10     9      180.000000       -0.460801         2    ;  uncertainty k = 0.536332
         7         6         5        10     9        0.000000        0.760014         3    ;  uncertainty k = 0.189206
         7         6         5        10     9      180.000000       -0.140462         4    ;  uncertainty k = 0.174339
         7         6         5        53     9        0.000000       -0.729544         1    ;  uncertainty k = 0.497030
         7         6         5        53     9      180.000000       -0.791957         2    ;  uncertainty k = 0.456970
         7         6         5        53     9        0.000000       -0.041902         3    ;  uncertainty k = 0.196139
         7         6         5        53     9      180.000000       -0.091107         4    ;  uncertainty k = 0.082280
         7         8         9        45     9        0.000000       -1.242142         1    ;  uncertainty k = 0.333100
         7         8         9        45     9      180.000000       -0.547474         2    ;  uncertainty k = 0.199769
         7         8         9        45     9        0.000000        0.486958         3    ;  uncertainty k = 0.161841
         7         8         9        45     9      180.000000       -0.063234         4    ;  uncertainty k = 0.050819
         7         8         9        46     9        0.000000       -1.242142         1    ;  uncertainty k = 0.333100
         7         8         9        46     9      180.000000       -0.547474         2    ;  uncertainty k = 0.199769
         7         8         9        46     9        0.000000        0.486958         3    ;  uncertainty k = 0.161841
         7         8         9        46     9      180.000000       -0.063234         4    ;  uncertainty k = 0.050819
         7        35        37        38     9        0.000000        9.050821         1    ;  uncertainty k = 0.304912
         7        35        37        38     9      180.000000        6.374692         2    ;  uncertainty k = 0.405917
         7        35        37        38     9        0.000000        1.178678         3    ;  uncertainty k = 0.297789
         7        35        37        38     9      180.000000        0.054538         4    ;  uncertainty k = 0.124306
         7        35        37        39     9        0.000000        9.050821         1    ;  uncertainty k = 0.304912
         7        35        37        39     9      180.000000        6.374692         2    ;  uncertainty k = 0.405917
         7        35        37        39     9        0.000000        1.178678         3    ;  uncertainty k = 0.297789
         7        35        37        39     9      180.000000        0.054538         4    ;  uncertainty k = 0.124306
         8         7         6        40     9        0.000000       -1.411123         1    ;  uncertainty k = 0.345622
         8         7         6        40     9      180.000000       -0.225290         2    ;  uncertainty k = 0.172594
         8         7         6        40     9        0.000000        0.346843         3    ;  uncertainty k = 0.114252
         8         7         6        40     9      180.000000       -0.038457         4    ;  uncertainty k = 0.044896
         8         7         6        41     9        0.000000       -1.411123         1    ;  uncertainty k = 0.345622
         8         7         6        41     9      180.000000       -0.225290         2    ;  uncertainty k = 0.172594
         8         7         6        41     9        0.000000        0.346843         3    ;  uncertainty k = 0.114252
         8         7         6        41     9      180.000000       -0.038457         4    ;  uncertainty k = 0.044896
         8         7        35        36     9        0.000000       -1.412751         1    ;  uncertainty k = 0.366362
         8         7        35        36     9      180.000000        4.939282         2    ;  uncertainty k = 0.250194
         8         7        35        36     9        0.000000        1.341107         3    ;  uncertainty k = 0.099404
         8         7        35        36     9      180.000000        0.562838         4    ;  uncertainty k = 0.064019
         8         7        35        37     9        0.000000       -1.501807         1    ;  uncertainty k = 0.463410
         8         7        35        37     9      180.000000        3.323275         2    ;  uncertainty k = 0.502078
         8         7        35        37     9        0.000000        0.807080         3    ;  uncertainty k = 0.124119
         8         7        35        37     9      180.000000        0.125518         4    ;  uncertainty k = 0.039696
         8         9         3        17     9        0.000000       -1.457206         1    ;  uncertainty k = 0.298888
         8         9         3        17     9      180.000000       -0.252367         2    ;  uncertainty k = 0.237241
         8         9         3        17     9        0.000000        0.030894         3    ;  uncertainty k = 0.098686
         8         9         3        17     9      180.000000       -0.150169         4    ;  uncertainty k = 0.106198
         9         3         2        16     9        0.000000        0.634681         1    ;  uncertainty k = 0.677017
         9         3         2        16     9      180.000000       -0.478512         2    ;  uncertainty k = 0.385368
         9         3         2        16     9        0.000000        0.289600         3    ;  uncertainty k = 0.123262
         9         3         2        16     9      180.000000        0.041943         4    ;  uncertainty k = 0.060836
         9         3         5        10     9        0.000000       -2.810062         1    ;  uncertainty k = 0.492312
         9         3         5        10     9      180.000000       -0.103221         2    ;  uncertainty k = 0.392228
         9         3         5        10     9        0.000000        0.585397         3    ;  uncertainty k = 0.172840
         9         3         5        10     9      180.000000       -0.069547         4    ;  uncertainty k = 0.194133
         9         3         5        53     9        0.000000       -1.271876         1    ;  uncertainty k = 0.258364
         9         3         5        53     9      180.000000       -0.302312         2    ;  uncertainty k = 0.369856
         9         3         5        53     9        0.000000       -0.215670         3    ;  uncertainty k = 0.082334
         9         3         5        53     9      180.000000       -0.166285         4    ;  uncertainty k = 0.070030
         9         8         7        35     9        0.000000       -3.041090         1    ;  uncertainty k = 1.250697
         9         8         7        35     9      180.000000       -0.383141         2    ;  uncertainty k = 0.506412
         9         8         7        35     9        0.000000        0.568121         3    ;  uncertainty k = 0.143697
         9         8         7        35     9      180.000000        0.124098         4    ;  uncertainty k = 0.149878
         9         8         7        42     9        0.000000       -2.462407         1    ;  uncertainty k = 0.395127
         9         8         7        42     9      180.000000        0.138659         2    ;  uncertainty k = 0.106163
         9         8         7        42     9        0.000000        0.247790         3    ;  uncertainty k = 0.112075
         9         8         7        42     9      180.000000       -0.234904         4    ;  uncertainty k = 0.140378
        10         5         3        17     9        0.000000        0.046235         1    ;  uncertainty k = 1.098222
        10         5         3        17     9      180.000000       -1.470668         2    ;  uncertainty k = 0.514741
        10         5         3        17     9        0.000000        0.498883         3    ;  uncertainty k = 0.269134
        10         5         3        17     9      180.000000       -0.254371         4    ;  uncertainty k = 0.120818
        10         5         6        40     9        0.000000       -0.426053         1    ;  uncertainty k = 0.715619
        10         5         6        40     9      180.000000       -1.218663         2    ;  uncertainty k = 0.323961
        10         5         6        40     9        0.000000        0.959757         3    ;  uncertainty k = 0.057975
        10         5         6        40     9      180.000000       -0.287486         4    ;  uncertainty k = 0.054397
        10         5         6        41     9        0.000000       -0.426053         1    ;  uncertainty k = 0.715619
        10         5         6        41     9      180.000000       -1.218663         2    ;  uncertainty k = 0.323961
        10         5         6        41     9        0.000000        0.959757         3    ;  uncertainty k = 0.057975
        10         5         6        41     9      180.000000       -0.287486         4    ;  uncertainty k = 0.054397
        10        11        12        14     9        0.000000        2.331066         1    ;  uncertainty k = 1.152102
        10        11        12        14     9      180.000000        2.596169         2    ;  uncertainty k = 0.278815
        10        11        12        14     9        0.000000        0.009927         3    ;  uncertainty k = 0.144977
        10        11        12        14     9      180.000000       -0.114334         4    ;  uncertainty k = 0.149289
        10        11        12        15     9        0.000000        3.367960         1    ;  uncertainty k = 1.051353
        10        11        12        15     9      180.000000        3.218021         2    ;  uncertainty k = 0.680396
        10        11        12        15     9        0.000000        1.143577         3    ;  uncertainty k = 0.311002
        10        11        12        15     9      180.000000       -0.348976         4    ;  uncertainty k = 0.193639
        11        10         5        53     9        0.000000        1.089600         1    ;  uncertainty k = 0.336795
        11        10         5        53     9      180.000000       -0.431387         2    ;  uncertainty k = 0.172745
        11        10         5        53     9        0.000000        0.083106         3    ;  uncertainty k = 0.110757
        11        10         5        53     9      180.000000        0.217749         4    ;  uncertainty k = 0.051819
        11        12        14        19     9        0.000000        0.338836         1    ;  uncertainty k = 0.784673
        11        12        14        19     9      180.000000       19.192857         2    ;  uncertainty k = 0.359716
        11        12        14        19     9        0.000000        1.903447         3    ;  uncertainty k = 0.386883
        11        12        14        19     9      180.000000        1.368535         4    ;  uncertainty k = 0.528772
        11        12        15        20     9        0.000000        0.370727         1    ;  uncertainty k = 1.804242
        11        12        15        20     9      180.000000        8.920830         2    ;  uncertainty k = 1.081273
        11        12        15        20     9        0.000000        0.589745         3    ;  uncertainty k = 1.110553
        11        12        15        20     9      180.000000        0.676613         4    ;  uncertainty k = 0.547063
        12        11        10        18     9        0.000000       -0.086051         1    ;  uncertainty k = 0.569285
        12        11        10        18     9      180.000000        6.824223         2    ;  uncertainty k = 1.004102
        12        11        10        18     9        0.000000        2.774672         3    ;  uncertainty k = 0.278048
        12        11        10        18     9      180.000000        0.087878         4    ;  uncertainty k = 0.345011
        12        14        19        20     9        0.000000       -0.476241         1    ;  uncertainty k = 0.425307
        12        14        19        20     9      180.000000       15.671500         2    ;  uncertainty k = 0.795841
        12        14        19        20     9        0.000000       -2.864533         3    ;  uncertainty k = 0.780902
        12        14        19        20     9      180.000000        1.605024         4    ;  uncertainty k = 0.448125
        12        14        19        24     9        0.000000        0.569206         1    ;  uncertainty k = 1.621980
        12        14        19        24     9      180.000000       12.800205         2    ;  uncertainty k = 0.282748
        12        14        19        24     9        0.000000        1.817073         3    ;  uncertainty k = 0.361654
        12        14        19        24     9      180.000000        0.682642         4    ;  uncertainty k = 0.136948
        12        15        20        19     9        0.000000       -0.523789         1    ;  uncertainty k = 1.004169
        12        15        20        19     9      180.000000       13.442345         2    ;  uncertainty k = 0.923619
        12        15        20        19     9        0.000000       -9.024257         3    ;  uncertainty k = 1.660071
        12        15        20        19     9      180.000000        1.636793         4    ;  uncertainty k = 0.487983
        12        15        20        21     9        0.000000        1.116166         1    ;  uncertainty k = 1.266411
        12        15        20        21     9      180.000000       10.158909         2    ;  uncertainty k = 0.818049
        12        15        20        21     9        0.000000        0.724355         3    ;  uncertainty k = 0.566010
        12        15        20        21     9      180.000000       -0.026620         4    ;  uncertainty k = 0.200593
        13        11        10        18     9        0.000000        2.038363         1    ;  uncertainty k = 0.746143
        13        11        10        18     9      180.000000       14.699346         2    ;  uncertainty k = 0.325315
        13        11        10        18     9        0.000000        1.840592         3    ;  uncertainty k = 0.226058
        13        11        10        18     9      180.000000       -0.518143         4    ;  uncertainty k = 0.264067
        13        11        12        14     9        0.000000       -0.975565         1    ;  uncertainty k = 1.614283
        13        11        12        14     9      180.000000        3.488550         2    ;  uncertainty k = 0.286154
        13        11        12        14     9        0.000000        0.632000         3    ;  uncertainty k = 0.220397
        13        11        12        14     9      180.000000        0.223278         4    ;  uncertainty k = 0.063243
        13        11        12        15     9        0.000000       -0.928770         1    ;  uncertainty k = 0.780300
        13        11        12        15     9      180.000000        4.634695         2    ;  uncertainty k = 0.475093
        13        11        12        15     9        0.000000        0.007574         3    ;  uncertainty k = 0.071977
        13        11        12        15     9      180.000000        0.288910         4    ;  uncertainty k = 0.240907
        14        12        15        20     9        0.000000        0.143511         1    ;  uncertainty k = 1.333641
        14        12        15        20     9      180.000000       14.564367         2    ;  uncertainty k = 1.374348
        14        12        15        20     9        0.000000       -9.893199         3    ;  uncertainty k = 1.620531
        14        12        15        20     9      180.000000        1.663619         4    ;  uncertainty k = 0.759588
        14        19        20        15     9        0.000000        0.087022         1    ;  uncertainty k = 0.519435
        14        19        20        15     9      180.000000       17.308740         2    ;  uncertainty k = 0.865665
        14        19        20        15     9        0.000000       -2.374264         3    ;  uncertainty k = 0.748324
        14        19        20        15     9      180.000000        1.160228         4    ;  uncertainty k = 0.641111
        14        19        20        21     9        0.000000        0.011055         1    ;  uncertainty k = 0.425259
        14        19        20        21     9      180.000000       14.953749         2    ;  uncertainty k = 0.328993
        14        19        20        21     9        0.000000        1.241934         3    ;  uncertainty k = 0.342959
        14        19        20        21     9      180.000000        1.144042         4    ;  uncertainty k = 0.470191
        14        19        24        23     9        0.000000       -3.954572         1    ;  uncertainty k = 1.035742
        14        19        24        23     9      180.000000        1.199577         2    ;  uncertainty k = 0.494541
        14        19        24        23     9        0.000000        0.552603         3    ;  uncertainty k = 0.196554
        14        19        24        23     9      180.000000        0.408701         4    ;  uncertainty k = 0.071879
        14        19        24        30     9        0.000000        0.678330         1    ;  uncertainty k = 0.150352
        14        19        24        30     9      180.000000        1.438459         2    ;  uncertainty k = 0.504096
        14        19        24        30     9        0.000000        0.609129         3    ;  uncertainty k = 0.196471
        14        19        24        30     9      180.000000        0.167234         4    ;  uncertainty k = 0.108981
        14        19        24        31     9        0.000000        0.678330         1    ;  uncertainty k = 0.150352
        14        19        24        31     9      180.000000        1.438459         2    ;  uncertainty k = 0.504096
        14        19        24        31     9        0.000000        0.609129         3    ;  uncertainty k = 0.196471
        14        19        24        31     9      180.000000        0.167234         4    ;  uncertainty k = 0.108981
        15        12        14        19     9        0.000000       -0.152600         1    ;  uncertainty k = 0.906407
        15        12        14        19     9      180.000000       20.432965         2    ;  uncertainty k = 0.275340
        15        12        14        19     9        0.000000       -2.337892         3    ;  uncertainty k = 1.016825
        15        12        14        19     9      180.000000        1.938626         4    ;  uncertainty k = 0.362221
        15        20        19        24     9        0.000000        0.239944         1    ;  uncertainty k = 0.547138
        15        20        19        24     9      180.000000       12.400727         2    ;  uncertainty k = 0.549556
        15        20        19        24     9        0.000000        0.936373         3    ;  uncertainty k = 0.318788
        15        20        19        24     9      180.000000        0.958147         4    ;  uncertainty k = 0.190163
        15        20        21        22     9        0.000000       -8.471687         1    ;  uncertainty k = 1.305576
        15        20        21        22     9      180.000000       -0.738803         2    ;  uncertainty k = 0.986263
        15        20        21        22     9        0.000000        0.572190         3    ;  uncertainty k = 0.535086
        15        20        21        22     9      180.000000        0.223231         4    ;  uncertainty k = 0.263405
        15        20        21        26     9        0.000000        0.153964         1    ;  uncertainty k = 0.629108
        15        20        21        26     9      180.000000        0.393717         2    ;  uncertainty k = 0.317135
        15        20        21        26     9        0.000000        0.658149         3    ;  uncertainty k = 0.161833
        15        20        21        26     9      180.000000       -0.071880         4    ;  uncertainty k = 0.067074
        15        20        21        27     9        0.000000        0.153964         1    ;  uncertainty k = 0.629108
        15        20        21        27     9      180.000000        0.393717         2    ;  uncertainty k = 0.317135
        15        20        21        27     9        0.000000        0.658149         3    ;  uncertainty k = 0.161833
        15        20        21        27     9      180.000000       -0.071880         4    ;  uncertainty k = 0.067074
        16         2         1        54     9        0.000000        0.058550         1    ;  uncertainty k = 0.849080
        16         2         1        54     9      180.000000        7.128245         2    ;  uncertainty k = 0.645489
        16         2         1        54     9        0.000000        2.928294         3    ;  uncertainty k = 0.309936
        16         2         1        54     9      180.000000        0.071268         4    ;  uncertainty k = 0.285478
        16         2         3        17     9        0.000000        0.610817         1    ;  uncertainty k = 0.327376
        16         2         3        17     9      180.000000       -0.669514         2    ;  uncertainty k = 0.209393
        16         2         3        17     9        0.000000        0.200271         3    ;  uncertainty k = 0.143118
        16         2         3        17     9      180.000000        0.169822         4    ;  uncertainty k = 0.070354
        17         3         5        53     9        0.000000        1.513065         1    ;  uncertainty k = 0.284756
        17         3         5        53     9      180.000000       -0.678718         2    ;  uncertainty k = 0.151480
        17         3         5        53     9        0.000000       -0.218306         3    ;  uncertainty k = 0.163263
        17         3         5        53     9      180.000000       -0.044945         4    ;  uncertainty k = 0.126486
        17         3         9        45     9        0.000000        1.375837         1    ;  uncertainty k = 0.283166
        17         3         9        45     9      180.000000       -0.516365         2    ;  uncertainty k = 0.208799
        17         3         9        45     9        0.000000       -0.079031         3    ;  uncertainty k = 0.113569
        17         3         9        45     9      180.000000        0.041388         4    ;  uncertainty k = 0.028182
        17         3         9        46     9        0.000000        1.375837         1    ;  uncertainty k = 0.283166
        17         3         9        46     9      180.000000       -0.516365         2    ;  uncertainty k = 0.208799
        17         3         9        46     9        0.000000       -0.079031         3    ;  uncertainty k = 0.113569
        17         3         9        46     9      180.000000        0.041388         4    ;  uncertainty k = 0.028182
        18        10         5        53     9        0.000000        0.543896         1    ;  uncertainty k = 0.397136
        18        10         5        53     9      180.000000       -0.624323         2    ;  uncertainty k = 0.182566
        18        10         5        53     9        0.000000        0.192235         3    ;  uncertainty k = 0.116009
        18        10         5        53     9      180.000000        0.189280         4    ;  uncertainty k = 0.076527
        19        20        21        22     9        0.000000       -4.140071         1    ;  uncertainty k = 1.925675
        19        20        21        22     9      180.000000        2.074247         2    ;  uncertainty k = 0.552905
        19        20        21        22     9        0.000000       -0.109904         3    ;  uncertainty k = 0.505232
        19        20        21        22     9      180.000000        0.002033         4    ;  uncertainty k = 0.168271
        19        20        21        26     9        0.000000        0.751076         1    ;  uncertainty k = 0.572851
        19        20        21        26     9      180.000000        0.321327         2    ;  uncertainty k = 0.277446
        19        20        21        26     9        0.000000       -0.191165         3    ;  uncertainty k = 0.140749
        19        20        21        26     9      180.000000       -0.337116         4    ;  uncertainty k = 0.203995
        19        20        21        27     9        0.000000        0.751076         1    ;  uncertainty k = 0.572851
        19        20        21        27     9      180.000000        0.321327         2    ;  uncertainty k = 0.277446
        19        20        21        27     9        0.000000       -0.191165         3    ;  uncertainty k = 0.140749
        19        20        21        27     9      180.000000       -0.337116         4    ;  uncertainty k = 0.203995
        19        24        23        22     9        0.000000       -2.230974         1    ;  uncertainty k = 1.801449
        19        24        23        22     9      180.000000       -1.841150         2    ;  uncertainty k = 0.733686
        19        24        23        22     9        0.000000        2.407959         3    ;  uncertainty k = 0.680334
        19        24        23        22     9      180.000000       -0.535745         4    ;  uncertainty k = 0.301690
        19        24        23        28     9        0.000000        1.199598         1    ;  uncertainty k = 0.377899
        19        24        23        28     9      180.000000       -1.613470         2    ;  uncertainty k = 0.549592
        19        24        23        28     9        0.000000        0.472706         3    ;  uncertainty k = 0.260800
        19        24        23        28     9      180.000000        0.111560         4    ;  uncertainty k = 0.091588
        19        24        23        29     9        0.000000        1.199598         1    ;  uncertainty k = 0.377899
        19        24        23        29     9      180.000000       -1.613470         2    ;  uncertainty k = 0.549592
        19        24        23        29     9        0.000000        0.472706         3    ;  uncertainty k = 0.260800
        19        24        23        29     9      180.000000        0.111560         4    ;  uncertainty k = 0.091588
        20        19        24        23     9        0.000000       -4.440652         1    ;  uncertainty k = 1.431166
        20        19        24        23     9      180.000000        4.155396         2    ;  uncertainty k = 1.296225
        20        19        24        23     9        0.000000       -0.642889         3    ;  uncertainty k = 0.597439
        20        19        24        23     9      180.000000       -0.217610         4    ;  uncertainty k = 0.318749
        20        19        24        30     9        0.000000        0.013025         1    ;  uncertainty k = 0.359065
        20        19        24        30     9      180.000000        1.250042         2    ;  uncertainty k = 0.490358
        20        19        24        30     9        0.000000        0.121610         3    ;  uncertainty k = 0.182463
        20        19        24        30     9      180.000000       -0.043715         4    ;  uncertainty k = 0.054548
        20        19        24        31     9        0.000000        0.013025         1    ;  uncertainty k = 0.359065
        20        19        24        31     9      180.000000        1.250042         2    ;  uncertainty k = 0.490358
        20        19        24        31     9        0.000000        0.121610         3    ;  uncertainty k = 0.182463
        20        19        24        31     9      180.000000       -0.043715         4    ;  uncertainty k = 0.054548
        20        21        22        23     9        0.000000       -2.931117         1    ;  uncertainty k = 2.436693
        20        21        22        23     9      180.000000       -1.451129         2    ;  uncertainty k = 0.464093
        20        21        22        23     9        0.000000        1.404828         3    ;  uncertainty k = 0.130307
        20        21        22        23     9      180.000000       -0.528609         4    ;  uncertainty k = 0.249297
        20        21        22        25     9        0.000000       -2.021362         1    ;  uncertainty k = 1.008927
        20        21        22        25     9      180.000000       -1.118312         2    ;  uncertainty k = 0.472230
        20        21        22        25     9        0.000000        1.258207         3    ;  uncertainty k = 0.234248
        20        21        22        25     9      180.000000       -0.045254         4    ;  uncertainty k = 0.250793
        21        20        19        24     9        0.000000        0.282381         1    ;  uncertainty k = 0.657141
        21        20        19        24     9      180.000000       10.551064         2    ;  uncertainty k = 0.221306
        21        20        19        24     9        0.000000        1.077819         3    ;  uncertainty k = 0.516713
        21        20        19        24     9      180.000000        0.991474         4    ;  uncertainty k = 0.186199
        21        22        23        24     9        0.000000       -4.350974         1    ;  uncertainty k = 2.057076
        21        22        23        24     9      180.000000       -1.496991         2    ;  uncertainty k = 0.799614
        21        22        23        24     9        0.000000        0.281379         3    ;  uncertainty k = 0.338606
        21        22        23        24     9      180.000000       -0.187310         4    ;  uncertainty k = 0.252807
        21        22        23        28     9        0.000000       -6.987612         1    ;  uncertainty k = 0.982733
        21        22        23        28     9      180.000000       -0.297910         2    ;  uncertainty k = 0.446998
        21        22        23        28     9        0.000000        0.675891         3    ;  uncertainty k = 0.207193
        21        22        23        28     9      180.000000       -0.045061         4    ;  uncertainty k = 0.100310
        21        22        23        29     9        0.000000       -6.987612         1    ;  uncertainty k = 0.982733
        21        22        23        29     9      180.000000       -0.297910         2    ;  uncertainty k = 0.446998
        21        22        23        29     9        0.000000        0.675891         3    ;  uncertainty k = 0.207193
        21        22        23        29     9      180.000000       -0.045061         4    ;  uncertainty k = 0.100310
        21        22        25        32     9        0.000000       -4.178510         1    ;  uncertainty k = 0.410688
        21        22        25        32     9      180.000000       -2.187807         2    ;  uncertainty k = 0.398638
        21        22        25        32     9        0.000000        1.157619         3    ;  uncertainty k = 0.069416
        21        22        25        32     9      180.000000        0.075129         4    ;  uncertainty k = 0.097696
        21        22        25        33     9        0.000000       -4.178510         1    ;  uncertainty k = 0.410688
        21        22        25        33     9      180.000000       -2.187807         2    ;  uncertainty k = 0.398638
        21        22        25        33     9        0.000000        1.157619         3    ;  uncertainty k = 0.069416
        21        22        25        33     9      180.000000        0.075129         4    ;  uncertainty k = 0.097696
        21        22        25        34     9        0.000000       -4.178510         1    ;  uncertainty k = 0.410688
        21        22        25        34     9      180.000000       -2.187807         2    ;  uncertainty k = 0.398638
        21        22        25        34     9        0.000000        1.157619         3    ;  uncertainty k = 0.069416
        21        22        25        34     9      180.000000        0.075129         4    ;  uncertainty k = 0.097696
        22        23        24        30     9        0.000000       -0.446420         1    ;  uncertainty k = 0.389425
        22        23        24        30     9      180.000000       -0.446895         2    ;  uncertainty k = 0.443633
        22        23        24        30     9        0.000000        1.043482         3    ;  uncertainty k = 0.139130
        22        23        24        30     9      180.000000       -0.054508         4    ;  uncertainty k = 0.166266
        22        23        24        31     9        0.000000       -0.446420         1    ;  uncertainty k = 0.389425
        22        23        24        31     9      180.000000       -0.446895         2    ;  uncertainty k = 0.443633
        22        23        24        31     9        0.000000        1.043482         3    ;  uncertainty k = 0.139130
        22        23        24        31     9      180.000000       -0.054508         4    ;  uncertainty k = 0.166266
        23        22        21        26     9        0.000000       -4.951174         1    ;  uncertainty k = 1.276230
        23        22        21        26     9      180.000000       -0.772512         2    ;  uncertainty k = 0.594344
        23        22        21        26     9        0.000000        0.687582         3    ;  uncertainty k = 0.234878
        23        22        21        26     9      180.000000        0.165440         4    ;  uncertainty k = 0.126758
        23        22        21        27     9        0.000000       -4.951174         1    ;  uncertainty k = 1.276230
        23        22        21        27     9      180.000000       -0.772512         2    ;  uncertainty k = 0.594344
        23        22        21        27     9        0.000000        0.687582         3    ;  uncertainty k = 0.234878
        23        22        21        27     9      180.000000        0.165440         4    ;  uncertainty k = 0.126758
        23        22        25        32     9        0.000000       -4.259086         1    ;  uncertainty k = 0.974846
        23        22        25        32     9      180.000000       -2.027003         2    ;  uncertainty k = 0.417753
        23        22        25        32     9        0.000000        1.017651         3    ;  uncertainty k = 0.103023
        23        22        25        32     9      180.000000        0.065258         4    ;  uncertainty k = 0.091860
        23        22        25        33     9        0.000000       -4.259086         1    ;  uncertainty k = 0.974846
        23        22        25        33     9      180.000000       -2.027003         2    ;  uncertainty k = 0.417753
        23        22        25        33     9        0.000000        1.017651         3    ;  uncertainty k = 0.103023
        23        22        25        33     9      180.000000        0.065258         4    ;  uncertainty k = 0.091860
        23        22        25        34     9        0.000000       -4.259086         1    ;  uncertainty k = 0.974846
        23        22        25        34     9      180.000000       -2.027003         2    ;  uncertainty k = 0.417753
        23        22        25        34     9        0.000000        1.017651         3    ;  uncertainty k = 0.103023
        23        22        25        34     9      180.000000        0.065258         4    ;  uncertainty k = 0.091860
        24        23        22        25     9        0.000000       -2.366425         1    ;  uncertainty k = 0.799682
        24        23        22        25     9      180.000000       -0.858215         2    ;  uncertainty k = 0.575132
        24        23        22        25     9        0.000000        0.300582         3    ;  uncertainty k = 0.302529
        24        23        22        25     9      180.000000        0.326407         4    ;  uncertainty k = 0.081722
        25        22        21        26     9        0.000000       -2.503106         1    ;  uncertainty k = 0.610923
        25        22        21        26     9      180.000000       -1.207857         2    ;  uncertainty k = 0.461275
        25        22        21        26     9        0.000000        0.607046         3    ;  uncertainty k = 0.147323
        25        22        21        26     9      180.000000        0.178325         4    ;  uncertainty k = 0.088460
        25        22        21        27     9        0.000000       -2.503106         1    ;  uncertainty k = 0.610923
        25        22        21        27     9      180.000000       -1.207857         2    ;  uncertainty k = 0.461275
        25        22        21        27     9        0.000000        0.607046         3    ;  uncertainty k = 0.147323
        25        22        21        27     9      180.000000        0.178325         4    ;  uncertainty k = 0.088460
        25        22        23        28     9        0.000000       -3.143701         1    ;  uncertainty k = 0.576024
        25        22        23        28     9      180.000000       -1.381403         2    ;  uncertainty k = 0.223671
        25        22        23        28     9        0.000000        0.354530         3    ;  uncertainty k = 0.126408
        25        22        23        28     9      180.000000        0.148173         4    ;  uncertainty k = 0.137426
        25        22        23        29     9        0.000000       -3.143701         1    ;  uncertainty k = 0.576024
        25        22        23        29     9      180.000000       -1.381403         2    ;  uncertainty k = 0.223671
        25        22        23        29     9        0.000000        0.354530         3    ;  uncertainty k = 0.126408
        25        22        23        29     9      180.000000        0.148173         4    ;  uncertainty k = 0.137426
        28        23        24        30     9        0.000000       -0.690419         1    ;  uncertainty k = 0.249272
        28        23        24        30     9      180.000000        0.819889         2    ;  uncertainty k = 0.297922
        28        23        24        30     9        0.000000        0.232501         3    ;  uncertainty k = 0.086816
        28        23        24        30     9      180.000000       -0.277806         4    ;  uncertainty k = 0.067741
        28        23        24        31     9        0.000000       -0.690419         1    ;  uncertainty k = 0.249272
        28        23        24        31     9      180.000000        0.819889         2    ;  uncertainty k = 0.297922
        28        23        24        31     9        0.000000        0.232501         3    ;  uncertainty k = 0.086816
        28        23        24        31     9      180.000000       -0.277806         4    ;  uncertainty k = 0.067741
        29        23        24        30     9        0.000000       -0.690419         1    ;  uncertainty k = 0.249272
        29        23        24        30     9      180.000000        0.819889         2    ;  uncertainty k = 0.297922
        29        23        24        30     9        0.000000        0.232501         3    ;  uncertainty k = 0.086816
        29        23        24        30     9      180.000000       -0.277806         4    ;  uncertainty k = 0.067741
        29        23        24        31     9        0.000000       -0.690419         1    ;  uncertainty k = 0.249272
        29        23        24        31     9      180.000000        0.819889         2    ;  uncertainty k = 0.297922
        29        23        24        31     9        0.000000        0.232501         3    ;  uncertainty k = 0.086816
        29        23        24        31     9      180.000000       -0.277806         4    ;  uncertainty k = 0.067741
        35         7         6        40     9        0.000000        2.074967         1    ;  uncertainty k = 0.921198
        35         7         6        40     9      180.000000       -0.794571         2    ;  uncertainty k = 0.180952
        35         7         6        40     9        0.000000        0.466866         3    ;  uncertainty k = 0.273235
        35         7         6        40     9      180.000000        0.035537         4    ;  uncertainty k = 0.093276
        35         7         6        41     9        0.000000        2.074967         1    ;  uncertainty k = 0.921198
        35         7         6        41     9      180.000000       -0.794571         2    ;  uncertainty k = 0.180952
        35         7         6        41     9        0.000000        0.466866         3    ;  uncertainty k = 0.273235
        35         7         6        41     9      180.000000        0.035537         4    ;  uncertainty k = 0.093276
        35         7         8        43     9        0.000000        2.252951         1    ;  uncertainty k = 0.998081
        35         7         8        43     9      180.000000       -0.859965         2    ;  uncertainty k = 0.120364
        35         7         8        43     9        0.000000        0.534711         3    ;  uncertainty k = 0.219264
        35         7         8        43     9      180.000000        0.057172         4    ;  uncertainty k = 0.086080
        35         7         8        44     9        0.000000        2.252951         1    ;  uncertainty k = 0.998081
        35         7         8        44     9      180.000000       -0.859965         2    ;  uncertainty k = 0.120364
        35         7         8        44     9        0.000000        0.534711         3    ;  uncertainty k = 0.219264
        35         7         8        44     9      180.000000        0.057172         4    ;  uncertainty k = 0.086080
        35        37        38        47     9        0.000000        0.159650         1    ;  uncertainty k = 0.146342
        35        37        38        47     9      180.000000       -0.144813         2    ;  uncertainty k = 0.094204
        35        37        38        47     9        0.000000        0.215227         3    ;  uncertainty k = 0.050987
        35        37        38        47     9      180.000000        0.244118         4    ;  uncertainty k = 0.052779
        35        37        38        48     9        0.000000        0.159650         1    ;  uncertainty k = 0.146342
        35        37        38        48     9      180.000000       -0.144813         2    ;  uncertainty k = 0.094204
        35        37        38        48     9        0.000000        0.215227         3    ;  uncertainty k = 0.050987
        35        37        38        48     9      180.000000        0.244118         4    ;  uncertainty k = 0.052779
        35        37        38        49     9        0.000000        0.159650         1    ;  uncertainty k = 0.146342
        35        37        38        49     9      180.000000       -0.144813         2    ;  uncertainty k = 0.094204
        35        37        38        49     9        0.000000        0.215227         3    ;  uncertainty k = 0.050987
        35        37        38        49     9      180.000000        0.244118         4    ;  uncertainty k = 0.052779
        35        37        39        50     9        0.000000        0.159650         1    ;  uncertainty k = 0.146342
        35        37        39        50     9      180.000000       -0.144813         2    ;  uncertainty k = 0.094204
        35        37        39        50     9        0.000000        0.215227         3    ;  uncertainty k = 0.050987
        35        37        39        50     9      180.000000        0.244118         4    ;  uncertainty k = 0.052779
        35        37        39        51     9        0.000000        0.159650         1    ;  uncertainty k = 0.146342
        35        37        39        51     9      180.000000       -0.144813         2    ;  uncertainty k = 0.094204
        35        37        39        51     9        0.000000        0.215227         3    ;  uncertainty k = 0.050987
        35        37        39        51     9      180.000000        0.244118         4    ;  uncertainty k = 0.052779
        35        37        39        52     9        0.000000        0.159650         1    ;  uncertainty k = 0.146342
        35        37        39        52     9      180.000000       -0.144813         2    ;  uncertainty k = 0.094204
        35        37        39        52     9        0.000000        0.215227         3    ;  uncertainty k = 0.050987
        35        37        39        52     9      180.000000        0.244118         4    ;  uncertainty k = 0.052779
        36        35         7        42     9        0.000000       -0.646773         1    ;  uncertainty k = 0.397646
        36        35         7        42     9      180.000000        3.762065         2    ;  uncertainty k = 0.492695
        36        35         7        42     9        0.000000        1.483897         3    ;  uncertainty k = 0.235291
        36        35         7        42     9      180.000000       -0.025919         4    ;  uncertainty k = 0.096422
        36        35        37        38     9        0.000000        6.844605         1    ;  uncertainty k = 0.882211
        36        35        37        38     9      180.000000       19.790839         2    ;  uncertainty k = 0.105250
        36        35        37        38     9        0.000000       -0.220230         3    ;  uncertainty k = 0.161100
        36        35        37        38     9      180.000000       -1.123904         4    ;  uncertainty k = 0.136735
        36        35        37        39     9        0.000000        6.844605         1    ;  uncertainty k = 0.882211
        36        35        37        39     9      180.000000       19.790839         2    ;  uncertainty k = 0.105250
        36        35        37        39     9        0.000000       -0.220230         3    ;  uncertainty k = 0.161100
        36        35        37        39     9      180.000000       -1.123904         4    ;  uncertainty k = 0.136735
        37        35         7        42     9        0.000000       -0.975826         1    ;  uncertainty k = 0.419407
        37        35         7        42     9      180.000000        2.303974         2    ;  uncertainty k = 0.241164
        37        35         7        42     9        0.000000        0.361698         3    ;  uncertainty k = 0.116719
        37        35         7        42     9      180.000000        0.170218         4    ;  uncertainty k = 0.047482
        38        37        39        50     9        0.000000       -0.681994         1    ;  uncertainty k = 0.166187
        38        37        39        50     9      180.000000       -1.033629         2    ;  uncertainty k = 0.139918
        38        37        39        50     9        0.000000        1.312135         3    ;  uncertainty k = 0.057549
        38        37        39        50     9      180.000000        0.172025         4    ;  uncertainty k = 0.029064
        38        37        39        51     9        0.000000       -0.681994         1    ;  uncertainty k = 0.166187
        38        37        39        51     9      180.000000       -1.033629         2    ;  uncertainty k = 0.139918
        38        37        39        51     9        0.000000        1.312135         3    ;  uncertainty k = 0.057549
        38        37        39        51     9      180.000000        0.172025         4    ;  uncertainty k = 0.029064
        38        37        39        52     9        0.000000       -0.681994         1    ;  uncertainty k = 0.166187
        38        37        39        52     9      180.000000       -1.033629         2    ;  uncertainty k = 0.139918
        38        37        39        52     9        0.000000        1.312135         3    ;  uncertainty k = 0.057549
        38        37        39        52     9      180.000000        0.172025         4    ;  uncertainty k = 0.029064
        39        37        38        47     9        0.000000       -0.681994         1    ;  uncertainty k = 0.166187
        39        37        38        47     9      180.000000       -1.033629         2    ;  uncertainty k = 0.139918
        39        37        38        47     9        0.000000        1.312135         3    ;  uncertainty k = 0.057549
        39        37        38        47     9      180.000000        0.172025         4    ;  uncertainty k = 0.029064
        39        37        38        48     9        0.000000       -0.681994         1    ;  uncertainty k = 0.166187
        39        37        38        48     9      180.000000       -1.033629         2    ;  uncertainty k = 0.139918
        39        37        38        48     9        0.000000        1.312135         3    ;  uncertainty k = 0.057549
        39        37        38        48     9      180.000000        0.172025         4    ;  uncertainty k = 0.029064
        39        37        38        49     9        0.000000       -0.681994         1    ;  uncertainty k = 0.166187
        39        37        38        49     9      180.000000       -1.033629         2    ;  uncertainty k = 0.139918
        39        37        38        49     9        0.000000        1.312135         3    ;  uncertainty k = 0.057549
        39        37        38        49     9      180.000000        0.172025         4    ;  uncertainty k = 0.029064
        40         6         5        53     9        0.000000        1.226337         1    ;  uncertainty k = 0.333268
        40         6         5        53     9      180.000000       -0.558738         2    ;  uncertainty k = 0.229595
        40         6         5        53     9        0.000000       -0.052763         3    ;  uncertainty k = 0.147877
        40         6         5        53     9      180.000000        0.050691         4    ;  uncertainty k = 0.043442
        40         6         7        42     9        0.000000        1.275091         1    ;  uncertainty k = 0.308666
        40         6         7        42     9      180.000000       -0.191825         2    ;  uncertainty k = 0.161770
        40         6         7        42     9        0.000000       -0.005639         3    ;  uncertainty k = 0.106020
        40         6         7        42     9      180.000000        0.069270         4    ;  uncertainty k = 0.064132
        41         6         5        53     9        0.000000        1.226337         1    ;  uncertainty k = 0.333268
        41         6         5        53     9      180.000000       -0.558738         2    ;  uncertainty k = 0.229595
        41         6         5        53     9        0.000000       -0.052763         3    ;  uncertainty k = 0.147877
        41         6         5        53     9      180.000000        0.050691         4    ;  uncertainty k = 0.043442
        41         6         7        42     9        0.000000        1.275091         1    ;  uncertainty k = 0.308666
        41         6         7        42     9      180.000000       -0.191825         2    ;  uncertainty k = 0.161770
        41         6         7        42     9        0.000000       -0.005639         3    ;  uncertainty k = 0.106020
        41         6         7        42     9      180.000000        0.069270         4    ;  uncertainty k = 0.064132
        42         7         8        43     9        0.000000        1.375228         1    ;  uncertainty k = 0.292892
        42         7         8        43     9      180.000000       -0.112288         2    ;  uncertainty k = 0.227466
        42         7         8        43     9        0.000000       -0.024960         3    ;  uncertainty k = 0.142904
        42         7         8        43     9      180.000000        0.069958         4    ;  uncertainty k = 0.050452
        42         7         8        44     9        0.000000        1.375228         1    ;  uncertainty k = 0.292892
        42         7         8        44     9      180.000000       -0.112288         2    ;  uncertainty k = 0.227466
        42         7         8        44     9        0.000000       -0.024960         3    ;  uncertainty k = 0.142904
        42         7         8        44     9      180.000000        0.069958         4    ;  uncertainty k = 0.050452
        43         8         9        45     9        0.000000        2.326423         1    ;  uncertainty k = 0.676926
        43         8         9        45     9      180.000000       -0.090332         2    ;  uncertainty k = 0.159897
        43         8         9        45     9        0.000000        0.305999         3    ;  uncertainty k = 0.135712
        43         8         9        45     9      180.000000        0.130735         4    ;  uncertainty k = 0.038641
        43         8         9        46     9        0.000000        2.326423         1    ;  uncertainty k = 0.676926
        43         8         9        46     9      180.000000       -0.090332         2    ;  uncertainty k = 0.159897
        43         8         9        46     9        0.000000        0.305999         3    ;  uncertainty k = 0.135712
        43         8         9        46     9      180.000000        0.130735         4    ;  uncertainty k = 0.038641
        44         8         9        45     9        0.000000        2.326423         1    ;  uncertainty k = 0.676926
        44         8         9        45     9      180.000000       -0.090332         2    ;  uncertainty k = 0.159897
        44         8         9        45     9        0.000000        0.305999         3    ;  uncertainty k = 0.135712
        44         8         9        45     9      180.000000        0.130735         4    ;  uncertainty k = 0.038641
        44         8         9        46     9        0.000000        2.326423         1    ;  uncertainty k = 0.676926
        44         8         9        46     9      180.000000       -0.090332         2    ;  uncertainty k = 0.159897
        44         8         9        46     9        0.000000        0.305999         3    ;  uncertainty k = 0.135712
        44         8         9        46     9      180.000000        0.130735         4    ;  uncertainty k = 0.038641
        54        55        58        59     9        0.000000        0.631110         1    ;  uncertainty k = 1.024680
        54        55        58        59     9      180.000000       12.764952         2    ;  uncertainty k = 1.075980
        54        55        58        59     9        0.000000      -10.140432         3    ;  uncertainty k = 2.059232
        54        55        58        59     9      180.000000        1.730146         4    ;  uncertainty k = 0.676526
        54        55        58        63     9        0.000000        0.619678         1    ;  uncertainty k = 0.790306
        54        55        58        63     9      180.000000        5.928566         2    ;  uncertainty k = 0.468846
        54        55        58        63     9        0.000000        0.648944         3    ;  uncertainty k = 0.226550
        54        55        58        63     9      180.000000        0.830761         4    ;  uncertainty k = 0.277469
        54        56        59        58     9        0.000000        0.250022         1    ;  uncertainty k = 0.973146
        54        56        59        58     9      180.000000       14.783337         2    ;  uncertainty k = 0.591493
        54        56        59        58     9        0.000000       -5.515951         3    ;  uncertainty k = 1.322964
        54        56        59        58     9      180.000000        0.848441         4    ;  uncertainty k = 0.682908
        54        56        59        60     9        0.000000        1.345717         1    ;  uncertainty k = 1.481632
        54        56        59        60     9      180.000000        6.068616         2    ;  uncertainty k = 0.710448
        54        56        59        60     9        0.000000        0.907628         3    ;  uncertainty k = 0.278073
        54        56        59        60     9      180.000000        0.416713         4    ;  uncertainty k = 0.218695
        55        54        56        59     9        0.000000       -0.550253         1    ;  uncertainty k = 0.654863
        55        54        56        59     9      180.000000       13.729494         2    ;  uncertainty k = 0.524645
        55        54        56        59     9        0.000000       -4.438921         3    ;  uncertainty k = 0.843514
        55        54        56        59     9      180.000000        1.326921         4    ;  uncertainty k = 0.313582
        55        58        59        56     9        0.000000       -0.485545         1    ;  uncertainty k = 0.532560
        55        58        59        56     9      180.000000       13.886735         2    ;  uncertainty k = 0.963296
        55        58        59        56     9        0.000000       -3.252503         3    ;  uncertainty k = 0.944821
        55        58        59        56     9      180.000000        1.524819         4    ;  uncertainty k = 0.766028
        55        58        59        60     9        0.000000       -0.041220         1    ;  uncertainty k = 0.258595
        55        58        59        60     9      180.000000        7.575862         2    ;  uncertainty k = 0.336443
        55        58        59        60     9        0.000000        0.110290         3    ;  uncertainty k = 0.518480
        55        58        59        60     9      180.000000        1.278688         4    ;  uncertainty k = 0.297018
        55        58        63        62     9        0.000000       -0.006088         1    ;  uncertainty k = 0.455875
        55        58        63        62     9      180.000000        9.017072         2    ;  uncertainty k = 0.319619
        55        58        63        62     9        0.000000        0.753853         3    ;  uncertainty k = 0.326438
        55        58        63        62     9      180.000000        1.326959         4    ;  uncertainty k = 0.172899
        55        58        63        67     9        0.000000        0.036491         1    ;  uncertainty k = 0.552198
        55        58        63        67     9      180.000000        5.616854         2    ;  uncertainty k = 0.452771
        55        58        63        67     9        0.000000        0.995165         3    ;  uncertainty k = 0.305594
        55        58        63        67     9      180.000000        0.787316         4    ;  uncertainty k = 0.314214
        56        54        55        57     9        0.000000        0.785838         1    ;  uncertainty k = 1.052767
        56        54        55        57     9      180.000000       16.920025         2    ;  uncertainty k = 0.420831
        56        54        55        57     9        0.000000        1.725338         3    ;  uncertainty k = 0.408590
        56        54        55        57     9      180.000000        1.038771         4    ;  uncertainty k = 0.288545
        56        54        55        58     9        0.000000       -0.354863         1    ;  uncertainty k = 0.381986
        56        54        55        58     9      180.000000       22.508979         2    ;  uncertainty k = 0.387625
        56        54        55        58     9        0.000000       -4.771831         3    ;  uncertainty k = 0.282760
        56        54        55        58     9      180.000000        1.269969         4    ;  uncertainty k = 0.782063
        56        59        58        63     9        0.000000        0.270698         1    ;  uncertainty k = 0.229038
        56        59        58        63     9      180.000000        9.479144         2    ;  uncertainty k = 0.263417
        56        59        58        63     9        0.000000        0.128380         3    ;  uncertainty k = 0.502401
        56        59        58        63     9      180.000000        1.319015         4    ;  uncertainty k = 0.455003
        56        59        60        61     9        0.000000        0.556878         1    ;  uncertainty k = 0.600645
        56        59        60        61     9      180.000000       10.072517         2    ;  uncertainty k = 0.508168
        56        59        60        61     9        0.000000        1.339301         3    ;  uncertainty k = 0.241388
        56        59        60        61     9      180.000000        1.565447         4    ;  uncertainty k = 0.304725
        56        59        60        64     9        0.000000        0.228881         1    ;  uncertainty k = 0.116740
        56        59        60        64     9      180.000000        6.517022         2    ;  uncertainty k = 0.507553
        56        59        60        64     9        0.000000        1.099993         3    ;  uncertainty k = 0.439831
        56        59        60        64     9      180.000000        0.918490         4    ;  uncertainty k = 0.398706
        57        55        58        59     9        0.000000       -0.286833         1    ;  uncertainty k = 1.007564
        57        55        58        59     9      180.000000        8.694230         2    ;  uncertainty k = 0.947127
        57        55        58        59     9        0.000000        0.812988         3    ;  uncertainty k = 0.860007
        57        55        58        59     9      180.000000        0.216888         4    ;  uncertainty k = 0.214501
        57        55        58        63     9        0.000000        0.443579         1    ;  uncertainty k = 0.748121
        57        55        58        63     9      180.000000        4.273364         2    ;  uncertainty k = 0.516522
        57        55        58        63     9        0.000000        1.438846         3    ;  uncertainty k = 0.215206
        57        55        58        63     9      180.000000        0.098735         4    ;  uncertainty k = 0.155879
        58        59        60        61     9        0.000000        0.075206         1    ;  uncertainty k = 0.299547
        58        59        60        61     9      180.000000       12.170309         2    ;  uncertainty k = 0.288626
        58        59        60        61     9        0.000000       -1.283855         3    ;  uncertainty k = 0.236197
        58        59        60        61     9      180.000000        0.798214         4    ;  uncertainty k = 0.241313
        58        59        60        64     9        0.000000        0.252867         1    ;  uncertainty k = 0.192492
        58        59        60        64     9      180.000000        6.493015         2    ;  uncertainty k = 0.808964
        58        59        60        64     9        0.000000        1.384677         3    ;  uncertainty k = 0.211557
        58        59        60        64     9      180.000000        1.352366         4    ;  uncertainty k = 0.270884
        58        63        62        61     9        0.000000        0.051606         1    ;  uncertainty k = 0.310565
        58        63        62        61     9      180.000000       11.786645         2    ;  uncertainty k = 0.440750
        58        63        62        61     9        0.000000        0.209985         3    ;  uncertainty k = 0.540568
        58        63        62        61     9      180.000000        1.085581         4    ;  uncertainty k = 0.472032
        58        63        62        66     9        0.000000       -0.102063         1    ;  uncertainty k = 0.277550
        58        63        62        66     9      180.000000       12.794672         2    ;  uncertainty k = 0.440103
        58        63        62        66     9        0.000000        1.609212         3    ;  uncertainty k = 0.275543
        58        63        62        66     9      180.000000        1.431050         4    ;  uncertainty k = 0.270015
        59        58        63        62     9        0.000000        0.020054         1    ;  uncertainty k = 0.281356
        59        58        63        62     9      180.000000       13.988325         2    ;  uncertainty k = 0.106550
        59        58        63        62     9        0.000000       -1.865761         3    ;  uncertainty k = 0.426933
        59        58        63        62     9      180.000000        0.696536         4    ;  uncertainty k = 0.161770
        59        58        63        67     9        0.000000       -0.031817         1    ;  uncertainty k = 0.423556
        59        58        63        67     9      180.000000        7.513580         2    ;  uncertainty k = 0.776043
        59        58        63        67     9        0.000000        1.397212         3    ;  uncertainty k = 0.303058
        59        58        63        67     9      180.000000        1.259053         4    ;  uncertainty k = 0.320700
        59        60        61        62     9        0.000000        0.050588         1    ;  uncertainty k = 0.249581
        59        60        61        62     9      180.000000       15.753899         2    ;  uncertainty k = 0.226731
        59        60        61        62     9        0.000000       -0.548548         3    ;  uncertainty k = 0.489048
        59        60        61        62     9      180.000000        0.824665         4    ;  uncertainty k = 0.384397
        59        60        61        65     9        0.000000       -0.056954         1    ;  uncertainty k = 0.165192
        59        60        61        65     9      180.000000       10.561898         2    ;  uncertainty k = 0.424025
        59        60        61        65     9        0.000000        1.390374         3    ;  uncertainty k = 0.327490
        59        60        61        65     9      180.000000        1.645528         4    ;  uncertainty k = 0.254236
        60        59        58        63     9        0.000000       -0.721161         1    ;  uncertainty k = 0.838988
        60        59        58        63     9      180.000000        7.637390         2    ;  uncertainty k = 0.705424
        60        59        58        63     9        0.000000       -0.153380         3    ;  uncertainty k = 0.228162
        60        59        58        63     9      180.000000        1.070468         4    ;  uncertainty k = 0.308961
        60        61        62        63     9        0.000000       -0.020469         1    ;  uncertainty k = 0.256344
        60        61        62        63     9      180.000000        8.843440         2    ;  uncertainty k = 0.507342
        60        61        62        63     9        0.000000       -0.066167         3    ;  uncertainty k = 0.523121
        60        61        62        63     9      180.000000        1.162842         4    ;  uncertainty k = 0.328815
        60        61        62        66     9        0.000000        0.157801         1    ;  uncertainty k = 0.117649
        60        61        62        66     9      180.000000        8.843023         2    ;  uncertainty k = 0.678615
        60        61        62        66     9        0.000000        1.539795         3    ;  uncertainty k = 0.462210
        60        61        62        66     9      180.000000        1.616953         4    ;  uncertainty k = 0.220715
        61        62        63        67     9        0.000000        0.067518         1    ;  uncertainty k = 0.247034
        61        62        63        67     9      180.000000        6.897723         2    ;  uncertainty k = 0.562183
        61        62        63        67     9        0.000000        1.533614         3    ;  uncertainty k = 0.302154
        61        62        63        67     9      180.000000        1.633242         4    ;  uncertainty k = 0.135214
        62        61        60        64     9        0.000000        0.125597         1    ;  uncertainty k = 0.195247
        62        61        60        64     9      180.000000        8.401356         2    ;  uncertainty k = 0.370891
        62        61        60        64     9        0.000000        1.616823         3    ;  uncertainty k = 0.295597
        62        61        60        64     9      180.000000        1.915336         4    ;  uncertainty k = 0.281332
        63        62        61        65     9        0.000000       -0.119137         1    ;  uncertainty k = 0.146784
        63        62        61        65     9      180.000000        5.603710         2    ;  uncertainty k = 0.577291
        63        62        61        65     9        0.000000        1.307318         3    ;  uncertainty k = 0.265615
        63        62        61        65     9      180.000000        1.428668         4    ;  uncertainty k = 0.175501
        64        60        61        65     9        0.000000       -0.119230         1    ;  uncertainty k = 0.282513
        64        60        61        65     9      180.000000        7.478180         2    ;  uncertainty k = 0.369489
        64        60        61        65     9        0.000000       -0.278360         3    ;  uncertainty k = 0.223576
        64        60        61        65     9      180.000000        0.091878         4    ;  uncertainty k = 0.141217
        65        61        62        66     9        0.000000       -0.020950         1    ;  uncertainty k = 0.143204
        65        61        62        66     9      180.000000        7.197559         2    ;  uncertainty k = 0.306866
        65        61        62        66     9        0.000000        0.665921         3    ;  uncertainty k = 0.321647
        65        61        62        66     9      180.000000        0.928098         4    ;  uncertainty k = 0.168200
        66        62        63        67     9        0.000000       -0.261936         1    ;  uncertainty k = 0.351517
        66        62        63        67     9      180.000000        8.339138         2    ;  uncertainty k = 0.458047
        66        62        63        67     9        0.000000        0.772386         3    ;  uncertainty k = 0.250224
        66        62        63        67     9      180.000000        1.028915         4    ;  uncertainty k = 0.264285

[ dihedrals ] ; impropers
;       ai        aj        ak        al funct           phase               k        pn
         1         2         4        54     4      180.000000       50.607512         2    ;  uncertainty k = 0.019624
         1         4        54         2     4      180.000000       50.607512         2    ;  uncertainty k = 0.019624
         1        54         2         4     4      180.000000       50.607512         2    ;  uncertainty k = 0.019624
        11        10        12        13     4      180.000000       49.476644         2    ;  uncertainty k = 0.014914
        11        12        13        10     4      180.000000       49.476644         2    ;  uncertainty k = 0.014914
        11        13        10        12     4      180.000000       49.476644         2    ;  uncertainty k = 0.014914
        12        11        14        15     4      180.000000        4.762177         2    ;  uncertainty k = 0.485670
        12        14        15        11     4      180.000000        4.762177         2    ;  uncertainty k = 0.485670
        12        15        11        14     4      180.000000        4.762177         2    ;  uncertainty k = 0.485670
        19        14        20        24     4      180.000000       10.302524         2    ;  uncertainty k = 0.235813
        19        20        24        14     4      180.000000       10.302524         2    ;  uncertainty k = 0.235813
        19        24        14        20     4      180.000000       10.302524         2    ;  uncertainty k = 0.235813
        20        15        19        21     4      180.000000        2.894551         2    ;  uncertainty k = 0.672593
        20        19        21        15     4      180.000000        2.894551         2    ;  uncertainty k = 0.672593
        20        21        15        19     4      180.000000        2.894551         2    ;  uncertainty k = 0.672593
        35         7        36        37     4      180.000000       51.316640         2    ;  uncertainty k = 0.028239
        35        36        37         7     4      180.000000       51.316640         2    ;  uncertainty k = 0.028239
        35        37         7        36     4      180.000000       51.316640         2    ;  uncertainty k = 0.028239
        54         1        55        56     4      180.000000        3.076409         2    ;  uncertainty k = 0.344991
        54        55        56         1     4      180.000000        3.076409         2    ;  uncertainty k = 0.344991
        54        56         1        55     4      180.000000        3.076409         2    ;  uncertainty k = 0.344991
        55        54        57        58     4      180.000000        0.652029         2    ;  uncertainty k = 0.958892
        55        57        58        54     4      180.000000        0.652029         2    ;  uncertainty k = 0.958892
        55        58        54        57     4      180.000000        0.652029         2    ;  uncertainty k = 0.958892
        59        56        58        60     4      180.000000        0.923123         2    ;  uncertainty k = 0.946198
        59        58        60        56     4      180.000000        0.923123         2    ;  uncertainty k = 0.946198
        59        60        56        58     4      180.000000        0.923123         2    ;  uncertainty k = 0.946198
        60        59        61        64     4      180.000000        3.236297         2    ;  uncertainty k = 0.155182
        60        61        64        59     4      180.000000        3.236297         2    ;  uncertainty k = 0.155182
        60        64        59        61     4      180.000000        3.236297         2    ;  uncertainty k = 0.155182
        61        60        62        65     4      180.000000        3.598624         2    ;  uncertainty k = 0.184769
        61        62        65        60     4      180.000000        3.598624         2    ;  uncertainty k = 0.184769
        61        65        60        62     4      180.000000        3.598624         2    ;  uncertainty k = 0.184769
        62        61        63        66     4      180.000000       11.948292         2    ;  uncertainty k = 0.068559
        62        63        66        61     4      180.000000       11.948292         2    ;  uncertainty k = 0.068559
        62        66        61        63     4      180.000000       11.948292         2    ;  uncertainty k = 0.068559
        63        58        62        67     4      180.000000        4.123504         2    ;  uncertainty k = 0.196628
        63        62        67        58     4      180.000000        4.123504         2    ;  uncertainty k = 0.196628
        63        67        58        62     4      180.000000        4.123504         2    ;  uncertainty k = 0.196628

[ pairs ]
;       ai        aj funct
         1         5     1
         1         9     1
         1        17     1
         1        57     1
         1        58     1
         1        59     1
         2         6     1
         2         8     1
         2        10     1
         2        45     1
         2        46     1
         2        53     1
         2        55     1
         2        56     1
         3         4     1
         3         7     1
         3        11     1
         3        18     1
         3        40     1
         3        41     1
         3        43     1
         3        44     1
         3        54     1
         4        16     1
         4        55     1
         4        56     1
         5         8     1
         5        12     1
         5        13     1
         5        16     1
         5        35     1
         5        42     1
         5        45     1
         5        46     1
         6         9     1
         6        11     1
         6        17     1
         6        18     1
         6        36     1
         6        37     1
         6        43     1
         6        44     1
         7        10     1
         7        38     1
         7        39     1
         7        45     1
         7        46     1
         7        53     1
         8        17     1
         8        36     1
         8        37     1
         8        40     1
         8        41     1
         9        10     1
         9        16     1
         9        35     1
         9        42     1
         9        53     1
        10        14     1
        10        15     1
        10        17     1
        10        40     1
        10        41     1
        11        19     1
        11        20     1
        11        53     1
        12        18     1
        12        21     1
        12        24     1
        13        14     1
        13        15     1
        13        18     1
        14        21     1
        14        23     1
        14        30     1
        14        31     1
        15        22     1
        15        24     1
        15        26     1
        15        27     1
        16        17     1
        16        54     1
        17        45     1
        17        46     1
        17        53     1
        18        53     1
        19        22     1
        19        26     1
        19        27     1
        19        28     1
        19        29     1
        20        23     1
        20        25     1
        20        30     1
        20        31     1
        21        24     1
        21        28     1
        21        29     1
        21        32     1
        21        33     1
        21        34     1
        22        30     1
        22        31     1
        23        26     1
        23        27     1
        23        32     1
        23        33     1
        23        34     1
        24        25     1
        25        26     1
        25        27     1
        25        28     1
        25        29     1
        28        30     1
        28        31     1
        29        30     1
        29        31     1
        35        40     1
        35        41     1
        35        43     1
        35        44     1
        35        47     1
        35        48     1
        35        49     1
        35        50     1
        35        51     1
        35        52     1
        36        38     1
        36        39     1
        36        42     1
        37        42     1
        38        50     1
        38        51     1
        38        52     1
        39        47     1
        39        48     1
        39        49     1
        40        42     1
        40        53     1
        41        42     1
        41        53     1
        42        43     1
        42        44     1
        43        45     1
        43        46     1
        44        45     1
        44        46     1
        54        60     1
        54        63     1
        55        60     1
        55        62     1
        55        67     1
        56        57     1
        56        61     1
        56        63     1
        56        64     1
        57        59     1
        57        63     1
        58        61     1
        58        64     1
        58        66     1
        59        62     1
        59        65     1
        59        67     1
        60        63     1
        60        66     1
        61        67     1
        62        64     1
        63        65     1
        64        65     1
        65        66     1
        66        67     1
