; ITP file created by ByteFF-joint-25, 2025-07-14 11:37:42.387342

[ atomtypes ]
;name           bonded.type        at.num        mass        charge   ptype           sigma         epsilon
 c0bf                                   6      0.0000       0.00000       A     3.31529e-01     4.12845e-01    ;  uncertainty sigma = 0.000016, epsilon = 0.001311
 n1bf                                   7      0.0000       0.00000       A     3.27034e-01     4.89784e-01    ;  uncertainty sigma = 0.000028, epsilon = 0.003139
 c2bf                                   6      0.0000       0.00000       A     3.39788e-01     4.50829e-01    ;  uncertainty sigma = 0.000020, epsilon = 0.000930
 o3bf                                   8      0.0000       0.00000       A     3.04890e-01     6.12219e-01    ;  uncertainty sigma = 0.000024, epsilon = 0.000874
 c4bf                                   6      0.0000       0.00000       A     3.39779e-01     4.50691e-01    ;  uncertainty sigma = 0.000021, epsilon = 0.001071
 c5bf                                   6      0.0000       0.00000       A     3.39785e-01     4.51177e-01    ;  uncertainty sigma = 0.000013, epsilon = 0.000568
 c6bf                                   6      0.0000       0.00000       A     3.39788e-01     4.50813e-01    ;  uncertainty sigma = 0.000005, epsilon = 0.001015
 c7bf                                   6      0.0000       0.00000       A     3.39784e-01     4.51089e-01    ;  uncertainty sigma = 0.000005, epsilon = 0.000646
 c8bf                                   6      0.0000       0.00000       A     3.39763e-01     4.50989e-01    ;  uncertainty sigma = 0.000009, epsilon = 0.000663
 n9bf                                   7      0.0000       0.00000       A     3.27037e-01     4.89849e-01    ;  uncertainty sigma = 0.000029, epsilon = 0.003194
 c10bf                                  6      0.0000       0.00000       A     3.31529e-01     4.12690e-01    ;  uncertainty sigma = 0.000018, epsilon = 0.001128
 c11bf                                  6      0.0000       0.00000       A     3.31525e-01     4.13652e-01    ;  uncertainty sigma = 0.000013, epsilon = 0.001225
 o12bf                                  8      0.0000       0.00000       A     3.04890e-01     6.12219e-01    ;  uncertainty sigma = 0.000024, epsilon = 0.000874
 n13bf                                  7      0.0000       0.00000       A     3.38354e-01     3.93161e-01    ;  uncertainty sigma = 0.000020, epsilon = 0.001245
 s14bf                                 16      0.0000       0.00000       A     3.53288e-01     1.18179e+00    ;  uncertainty sigma = 0.000032, epsilon = 0.002346
 h15bf                                  1      0.0000       0.00000       A     1.10666e-01     4.15406e-02    ;  uncertainty sigma = 0.000113, epsilon = 0.000907
 h16bf                                  1      0.0000       0.00000       A     2.42171e-01     8.67682e-02    ;  uncertainty sigma = 0.000031, epsilon = 0.001303
 h17bf                                  1      0.0000       0.00000       A     1.10666e-01     4.15404e-02    ;  uncertainty sigma = 0.000113, epsilon = 0.000907
 c18bf                                  6      0.0000       0.00000       A     3.31531e-01     4.13284e-01    ;  uncertainty sigma = 0.000022, epsilon = 0.000692
 c19bf                                  6      0.0000       0.00000       A     3.31510e-01     4.13232e-01    ;  uncertainty sigma = 0.000021, epsilon = 0.000971
 c20bf                                  6      0.0000       0.00000       A     3.39772e-01     4.51291e-01    ;  uncertainty sigma = 0.000007, epsilon = 0.001369
 n21bf                                  7      0.0000       0.00000       A     3.36491e-01     3.58344e-01    ;  uncertainty sigma = 0.000019, epsilon = 0.001758
 c22bf                                  6      0.0000       0.00000       A     3.39770e-01     4.51225e-01    ;  uncertainty sigma = 0.000009, epsilon = 0.000671
 c23bf                                  6      0.0000       0.00000       A     3.39762e-01     4.51164e-01    ;  uncertainty sigma = 0.000008, epsilon = 0.001424
 c24bf                                  6      0.0000       0.00000       A     3.39770e-01     4.51318e-01    ;  uncertainty sigma = 0.000003, epsilon = 0.000740
 h25bf                                  1      0.0000       0.00000       A     2.42250e-01     8.62902e-02    ;  uncertainty sigma = 0.000037, epsilon = 0.000964
 h26bf                                  1      0.0000       0.00000       A     2.42250e-01     8.62902e-02    ;  uncertainty sigma = 0.000037, epsilon = 0.000964
 h27bf                                  1      0.0000       0.00000       A     2.42218e-01     8.69005e-02    ;  uncertainty sigma = 0.000021, epsilon = 0.000739
 h28bf                                  1      0.0000       0.00000       A     2.42218e-01     8.69005e-02    ;  uncertainty sigma = 0.000021, epsilon = 0.000739
 h29bf                                  1      0.0000       0.00000       A     2.60015e-01     8.68230e-02    ;  uncertainty sigma = 0.000020, epsilon = 0.000739
 h30bf                                  1      0.0000       0.00000       A     2.60015e-01     8.68230e-02    ;  uncertainty sigma = 0.000020, epsilon = 0.000739
 h31bf                                  1      0.0000       0.00000       A     2.42198e-01     8.68693e-02    ;  uncertainty sigma = 0.000014, epsilon = 0.000543
 h32bf                                  1      0.0000       0.00000       A     2.42198e-01     8.68693e-02    ;  uncertainty sigma = 0.000014, epsilon = 0.000543
 h33bf                                  1      0.0000       0.00000       A     2.42198e-01     8.68693e-02    ;  uncertainty sigma = 0.000014, epsilon = 0.000543
 c34bf                                  6      0.0000       0.00000       A     3.31545e-01     4.13066e-01    ;  uncertainty sigma = 0.000011, epsilon = 0.001034
 o35bf                                  8      0.0000       0.00000       A     3.04819e-01     6.12467e-01    ;  uncertainty sigma = 0.000013, epsilon = 0.000996
 n36bf                                  7      0.0000       0.00000       A     3.18136e-01     6.84509e-01    ;  uncertainty sigma = 0.000019, epsilon = 0.001339
 c37bf                                  6      0.0000       0.00000       A     3.39777e-01     4.50876e-01    ;  uncertainty sigma = 0.000006, epsilon = 0.000504
 c38bf                                  6      0.0000       0.00000       A     3.39777e-01     4.50876e-01    ;  uncertainty sigma = 0.000006, epsilon = 0.000504
 h39bf                                  1      0.0000       0.00000       A     2.60016e-01     8.65219e-02    ;  uncertainty sigma = 0.000021, epsilon = 0.000613
 h40bf                                  1      0.0000       0.00000       A     2.60016e-01     8.65219e-02    ;  uncertainty sigma = 0.000021, epsilon = 0.000613
 h41bf                                  1      0.0000       0.00000       A     2.60030e-01     8.70270e-02    ;  uncertainty sigma = 0.000011, epsilon = 0.000538
 h42bf                                  1      0.0000       0.00000       A     2.60020e-01     8.66352e-02    ;  uncertainty sigma = 0.000016, epsilon = 0.000625
 h43bf                                  1      0.0000       0.00000       A     2.60020e-01     8.66352e-02    ;  uncertainty sigma = 0.000016, epsilon = 0.000625
 h44bf                                  1      0.0000       0.00000       A     2.60024e-01     8.67210e-02    ;  uncertainty sigma = 0.000008, epsilon = 0.000629
 h45bf                                  1      0.0000       0.00000       A     2.60024e-01     8.67210e-02    ;  uncertainty sigma = 0.000008, epsilon = 0.000629
 h46bf                                  1      0.0000       0.00000       A     2.42196e-01     8.67627e-02    ;  uncertainty sigma = 0.000011, epsilon = 0.000510
 h47bf                                  1      0.0000       0.00000       A     2.42196e-01     8.67627e-02    ;  uncertainty sigma = 0.000011, epsilon = 0.000510
 h48bf                                  1      0.0000       0.00000       A     2.42196e-01     8.67627e-02    ;  uncertainty sigma = 0.000011, epsilon = 0.000510
 h49bf                                  1      0.0000       0.00000       A     2.42196e-01     8.67627e-02    ;  uncertainty sigma = 0.000011, epsilon = 0.000510
 h50bf                                  1      0.0000       0.00000       A     2.42196e-01     8.67627e-02    ;  uncertainty sigma = 0.000011, epsilon = 0.000510
 h51bf                                  1      0.0000       0.00000       A     2.42196e-01     8.67627e-02    ;  uncertainty sigma = 0.000011, epsilon = 0.000510
 h52bf                                  1      0.0000       0.00000       A     2.42144e-01     8.68216e-02    ;  uncertainty sigma = 0.000035, epsilon = 0.001353
 c53bf                                  6      0.0000       0.00000       A     3.31544e-01     4.13335e-01    ;  uncertainty sigma = 0.000014, epsilon = 0.001649
 n54bf                                  7      0.0000       0.00000       A     3.38412e-01     3.93837e-01    ;  uncertainty sigma = 0.000019, epsilon = 0.000867
 s55bf                                 16      0.0000       0.00000       A     3.53226e-01     1.18266e+00    ;  uncertainty sigma = 0.000022, epsilon = 0.002497
 c56bf                                  6      0.0000       0.00000       A     3.31553e-01     4.12622e-01    ;  uncertainty sigma = 0.000008, epsilon = 0.000823
 c57bf                                  6      0.0000       0.00000       A     3.31514e-01     4.12760e-01    ;  uncertainty sigma = 0.000006, epsilon = 0.000764
 c58bf                                  6      0.0000       0.00000       A     3.31526e-01     4.13225e-01    ;  uncertainty sigma = 0.000002, epsilon = 0.000715
 c59bf                                  6      0.0000       0.00000       A     3.31522e-01     4.13496e-01    ;  uncertainty sigma = 0.000005, epsilon = 0.000458
 c60bf                                  6      0.0000       0.00000       A     3.31532e-01     4.13021e-01    ;  uncertainty sigma = 0.000003, epsilon = 0.000689
 c61bf                                  6      0.0000       0.00000       A     3.31542e-01     4.13439e-01    ;  uncertainty sigma = 0.000005, epsilon = 0.000802
 h62bf                                  1      0.0000       0.00000       A     2.62581e-01     6.69401e-02    ;  uncertainty sigma = 0.000018, epsilon = 0.000640
 h63bf                                  1      0.0000       0.00000       A     2.62557e-01     6.70701e-02    ;  uncertainty sigma = 0.000009, epsilon = 0.000710
 cl64bf                                17      0.0000       0.00000       A     3.46614e-01     1.10425e+00    ;  uncertainty sigma = 0.000017, epsilon = 0.000933
 h65bf                                  1      0.0000       0.00000       A     2.62556e-01     6.70323e-02    ;  uncertainty sigma = 0.000009, epsilon = 0.000711

[ moleculetype ]
;name             nrexcl
 MOL                   3

[ atoms ]
;       nr            type      resi   res      atom      cgnr      charge          mass ; qtot
         1            c0bf         1   UNL        c0         1     0.60604       12.0110 ; qtot    0.606
         2            n1bf         1   UNL        n1         2    -0.55543       14.0070 ; qtot    0.051
         3            c2bf         1   UNL        c2         3     0.10292       12.0110 ; qtot    0.154
         4            o3bf         1   UNL        o3         4    -0.57391       15.9990 ; qtot   -0.420
         5            c4bf         1   UNL        c4         5     0.10502       12.0110 ; qtot   -0.315
         6            c5bf         1   UNL        c5         6    -0.07514       12.0110 ; qtot   -0.390
         7            c6bf         1   UNL        c6         7    -0.13250       12.0110 ; qtot   -0.523
         8            c7bf         1   UNL        c7         8    -0.06578       12.0110 ; qtot   -0.589
         9            c8bf         1   UNL        c8         9    -0.08710       12.0110 ; qtot   -0.676
        10            n9bf         1   UNL        n9        10    -0.55643       14.0070 ; qtot   -1.232
        11           c10bf         1   UNL       c10        11     0.59414       12.0110 ; qtot   -0.638
        12           c11bf         1   UNL       c11        12     0.37509       12.0110 ; qtot   -0.263
        13           o12bf         1   UNL       o12        13    -0.57698       15.9990 ; qtot   -0.840
        14           n13bf         1   UNL       n13        14    -0.60853       14.0070 ; qtot   -1.449
        15           s14bf         1   UNL       s14        15    -0.11954       32.0670 ; qtot   -1.568
        16           h15bf         1   UNL       h15        16     0.33706        1.0080 ; qtot   -1.231
        17           h16bf         1   UNL       h16        17     0.07792        1.0080 ; qtot   -1.153
        18           h17bf         1   UNL       h17        18     0.33735        1.0080 ; qtot   -0.816
        19           c18bf         1   UNL       c18        19     0.34886       12.0110 ; qtot   -0.467
        20           c19bf         1   UNL       c19        20    -0.15290       12.0110 ; qtot   -0.620
        21           c20bf         1   UNL       c20        21     0.24342       12.0110 ; qtot   -0.376
        22           n21bf         1   UNL       n21        22    -0.71265       14.0070 ; qtot   -1.089
        23           c22bf         1   UNL       c22        23     0.15896       12.0110 ; qtot   -0.930
        24           c23bf         1   UNL       c23        24    -0.11292       12.0110 ; qtot   -1.043
        25           c24bf         1   UNL       c24        25     0.14692       12.0110 ; qtot   -0.896
        26           h25bf         1   UNL       h25        26     0.05218        1.0080 ; qtot   -0.844
        27           h26bf         1   UNL       h26        27     0.05218        1.0080 ; qtot   -0.792
        28           h27bf         1   UNL       h27        28     0.04542        1.0080 ; qtot   -0.746
        29           h28bf         1   UNL       h28        29     0.04542        1.0080 ; qtot   -0.701
        30           h29bf         1   UNL       h29        30     0.06419        1.0080 ; qtot   -0.637
        31           h30bf         1   UNL       h30        31     0.06419        1.0080 ; qtot   -0.573
        32           h31bf         1   UNL       h31        32     0.03530        1.0080 ; qtot   -0.537
        33           h32bf         1   UNL       h32        33     0.03530        1.0080 ; qtot   -0.502
        34           h33bf         1   UNL       h33        34     0.03530        1.0080 ; qtot   -0.467
        35           c34bf         1   UNL       c34        35     0.67193       12.0110 ; qtot    0.205
        36           o35bf         1   UNL       o35        36    -0.60797       15.9990 ; qtot   -0.403
        37           n36bf         1   UNL       n36        37    -0.49029       14.0070 ; qtot   -0.893
        38           c37bf         1   UNL       c37        38     0.08466       12.0110 ; qtot   -0.808
        39           c38bf         1   UNL       c38        39     0.08466       12.0110 ; qtot   -0.724
        40           h39bf         1   UNL       h39        40     0.06150        1.0080 ; qtot   -0.662
        41           h40bf         1   UNL       h40        41     0.06150        1.0080 ; qtot   -0.601
        42           h41bf         1   UNL       h41        42     0.06422        1.0080 ; qtot   -0.536
        43           h42bf         1   UNL       h42        43     0.05208        1.0080 ; qtot   -0.484
        44           h43bf         1   UNL       h43        44     0.05208        1.0080 ; qtot   -0.432
        45           h44bf         1   UNL       h44        45     0.05526        1.0080 ; qtot   -0.377
        46           h45bf         1   UNL       h45        46     0.05526        1.0080 ; qtot   -0.322
        47           h46bf         1   UNL       h46        47     0.04383        1.0080 ; qtot   -0.278
        48           h47bf         1   UNL       h47        48     0.04383        1.0080 ; qtot   -0.234
        49           h48bf         1   UNL       h48        49     0.04383        1.0080 ; qtot   -0.190
        50           h49bf         1   UNL       h49        50     0.04383        1.0080 ; qtot   -0.146
        51           h50bf         1   UNL       h50        51     0.04383        1.0080 ; qtot   -0.103
        52           h51bf         1   UNL       h51        52     0.04383        1.0080 ; qtot   -0.059
        53           h52bf         1   UNL       h52        53     0.07881        1.0080 ; qtot    0.020
        54           c53bf         1   UNL       c53        54     0.33753       12.0110 ; qtot    0.358
        55           n54bf         1   UNL       n54        55    -0.50416       14.0070 ; qtot   -0.147
        56           s55bf         1   UNL       s55        56    -0.03222       32.0670 ; qtot   -0.179
        57           c56bf         1   UNL       c56        57     0.08974       12.0110 ; qtot   -0.089
        58           c57bf         1   UNL       c57        58    -0.05432       12.0110 ; qtot   -0.143
        59           c58bf         1   UNL       c58        59    -0.08135       12.0110 ; qtot   -0.225
        60           c59bf         1   UNL       c59        60    -0.11397       12.0110 ; qtot   -0.339
        61           c60bf         1   UNL       c60        61     0.03377       12.0110 ; qtot   -0.305
        62           c61bf         1   UNL       c61        62    -0.05309       12.0110 ; qtot   -0.358
        63           h62bf         1   UNL       h62        63     0.14833        1.0080 ; qtot   -0.210
        64           h63bf         1   UNL       h63        64     0.15491        1.0080 ; qtot   -0.055
        65          cl64bf         1   UNL      cl64        65    -0.11357       35.4530 ; qtot   -0.168
        66           h65bf         1   UNL       h65        66     0.16835        1.0080 ; qtot   -0.000

[ bonds ]
;       ai        aj funct               r               k
         1         2     1        0.136105   289881.892285    ;  uncertainty r = 0.000102, k = 21.119825
         1         4     1        0.123495   702991.267188    ;  uncertainty r = 0.000119, k = 13.791339
         1        54     1        0.148440   253221.609717    ;  uncertainty r = 0.000208, k = 25.863680
         2         3     1        0.145843   237885.886035    ;  uncertainty r = 0.000067, k = 15.826334
         2        16     1        0.101613   410644.277734    ;  uncertainty r = 0.000098, k = 3.800061
         3         5     1        0.154148   193018.563867    ;  uncertainty r = 0.000235, k = 6.812802
         3         9     1        0.153522   200092.726221    ;  uncertainty r = 0.000089, k = 6.873823
         3        17     1        0.109362   306001.145557    ;  uncertainty r = 0.000053, k = 3.247775
         5         6     1        0.153459   198491.779297    ;  uncertainty r = 0.000127, k = 5.264538
         5        10     1        0.145729   238727.461475    ;  uncertainty r = 0.000067, k = 15.790014
         5        53     1        0.109360   306487.525342    ;  uncertainty r = 0.000054, k = 3.376958
         6         7     1        0.153721   199006.850024    ;  uncertainty r = 0.000168, k = 6.848027
         6        40     1        0.109526   310433.851465    ;  uncertainty r = 0.000043, k = 0.875064
         6        41     1        0.109526   310433.851465    ;  uncertainty r = 0.000043, k = 0.875064
         7         8     1        0.153975   202217.337109    ;  uncertainty r = 0.000087, k = 2.573046
         7        35     1        0.153156   206143.680444    ;  uncertainty r = 0.000070, k = 12.443492
         7        42     1        0.109633   309151.735352    ;  uncertainty r = 0.000051, k = 6.503762
         8         9     1        0.153315   207912.240186    ;  uncertainty r = 0.000063, k = 5.403351
         8        43     1        0.109602   308125.501074    ;  uncertainty r = 0.000021, k = 1.819146
         8        44     1        0.109602   308125.501074    ;  uncertainty r = 0.000021, k = 1.819146
         9        45     1        0.109620   309910.953613    ;  uncertainty r = 0.000024, k = 1.009960
         9        46     1        0.109620   309910.953613    ;  uncertainty r = 0.000024, k = 1.009960
        10        11     1        0.136254   291452.475586    ;  uncertainty r = 0.000129, k = 17.867731
        10        18     1        0.101616   410581.507520    ;  uncertainty r = 0.000093, k = 3.750123
        11        12     1        0.147883   259563.418848    ;  uncertainty r = 0.000125, k = 27.680344
        11        13     1        0.123538   703630.001367    ;  uncertainty r = 0.000115, k = 12.098945
        12        14     1        0.130310   434161.095312    ;  uncertainty r = 0.000085, k = 15.053236
        12        15     1        0.175563   155788.944214    ;  uncertainty r = 0.000188, k = 10.470577
        14        19     1        0.137602   299978.345996    ;  uncertainty r = 0.000211, k = 8.739575
        15        20     1        0.173396   184345.625244    ;  uncertainty r = 0.000110, k = 8.530767
        19        20     1        0.137286   397473.794482    ;  uncertainty r = 0.000034, k = 9.608965
        19        24     1        0.149948   244144.622949    ;  uncertainty r = 0.000108, k = 7.193396
        20        21     1        0.150719   237383.826465    ;  uncertainty r = 0.000089, k = 11.691948
        21        22     1        0.146397   258698.068359    ;  uncertainty r = 0.000045, k = 12.802743
        21        26     1        0.110180   303656.992139    ;  uncertainty r = 0.000048, k = 3.959665
        21        27     1        0.110180   303656.992139    ;  uncertainty r = 0.000048, k = 3.959665
        22        23     1        0.146774   246527.975830    ;  uncertainty r = 0.000088, k = 8.191406
        22        25     1        0.145874   240551.449512    ;  uncertainty r = 0.000055, k = 4.989744
        23        24     1        0.153862   211171.503149    ;  uncertainty r = 0.000061, k = 10.297044
        23        28     1        0.109933   305388.127246    ;  uncertainty r = 0.000023, k = 3.768152
        23        29     1        0.109933   305388.127246    ;  uncertainty r = 0.000023, k = 3.768152
        24        30     1        0.109729   310887.467139    ;  uncertainty r = 0.000009, k = 2.383701
        24        31     1        0.109729   310887.467139    ;  uncertainty r = 0.000009, k = 2.383701
        25        32     1        0.109858   306972.960254    ;  uncertainty r = 0.000009, k = 1.032628
        25        33     1        0.109858   306972.960254    ;  uncertainty r = 0.000009, k = 1.032628
        25        34     1        0.109858   306972.960254    ;  uncertainty r = 0.000009, k = 1.032628
        35        36     1        0.123614   736987.492969    ;  uncertainty r = 0.000035, k = 11.451192
        35        37     1        0.137582   365085.461719    ;  uncertainty r = 0.000056, k = 20.353979
        37        38     1        0.145904   250764.556738    ;  uncertainty r = 0.000013, k = 6.211512
        37        39     1        0.145904   250764.556738    ;  uncertainty r = 0.000013, k = 6.211512
        38        47     1        0.109437   311080.731982    ;  uncertainty r = 0.000014, k = 1.257584
        38        48     1        0.109437   311080.731982    ;  uncertainty r = 0.000014, k = 1.257584
        38        49     1        0.109437   311080.731982    ;  uncertainty r = 0.000014, k = 1.257584
        39        50     1        0.109437   311080.731982    ;  uncertainty r = 0.000014, k = 1.257584
        39        51     1        0.109437   311080.731982    ;  uncertainty r = 0.000014, k = 1.257584
        39        52     1        0.109437   311080.731982    ;  uncertainty r = 0.000014, k = 1.257584
        54        55     1        0.129621   421685.425732    ;  uncertainty r = 0.000108, k = 13.530096
        54        56     1        0.176939   155207.566382    ;  uncertainty r = 0.000120, k = 3.065190
        55        57     1        0.138766   316155.823877    ;  uncertainty r = 0.000118, k = 14.555136
        56        58     1        0.175017   202191.084961    ;  uncertainty r = 0.000060, k = 7.372799
        57        58     1        0.141833   349757.271484    ;  uncertainty r = 0.000027, k = 3.983828
        57        62     1        0.140372   367586.744971    ;  uncertainty r = 0.000030, k = 1.858822
        58        59     1        0.139787   361243.710059    ;  uncertainty r = 0.000044, k = 3.778504
        59        60     1        0.139086   375015.643311    ;  uncertainty r = 0.000034, k = 2.062532
        59        63     1        0.108731   335299.947754    ;  uncertainty r = 0.000034, k = 1.652111
        60        61     1        0.140689   344305.941357    ;  uncertainty r = 0.000050, k = 1.585892
        60        64     1        0.108655   335512.799561    ;  uncertainty r = 0.000009, k = 1.216184
        61        62     1        0.138846   361364.883643    ;  uncertainty r = 0.000046, k = 4.640194
        61        65     1        0.175719   195900.924634    ;  uncertainty r = 0.000092, k = 2.746694
        62        66     1        0.108675   336292.830566    ;  uncertainty r = 0.000016, k = 1.539752

[ angles ]
;       ai        aj        ak funct           theta             cth
         1         2         3     1      116.259827      438.586319    ;  uncertainty theta = 0.006421, k = 0.213840
         1         2        16     1      116.244301      349.700898    ;  uncertainty theta = 0.004498, k = 0.088682
         1        54        55     1      121.870483      375.309767    ;  uncertainty theta = 0.007043, k = 0.293119
         1        54        56     1      118.190384      276.828969    ;  uncertainty theta = 0.007954, k = 0.413776
         2         1         4     1      125.074600      806.068323    ;  uncertainty theta = 0.004535, k = 0.055676
         2         1        54     1      112.958191      427.091811    ;  uncertainty theta = 0.007188, k = 0.219441
         2         3         5     1      108.983238      581.987977    ;  uncertainty theta = 0.004465, k = 0.157649
         2         3         9     1      110.595398      634.251459    ;  uncertainty theta = 0.001796, k = 0.070634
         2         3        17     1      105.160263      446.205507    ;  uncertainty theta = 0.004604, k = 0.159967
         3         2        16     1      112.781822      316.465755    ;  uncertainty theta = 0.002138, k = 0.317135
         3         5         6     1      109.653160      543.361120    ;  uncertainty theta = 0.003089, k = 0.180085
         3         5        10     1      109.133949      584.154354    ;  uncertainty theta = 0.004578, k = 0.172999
         3         5        53     1      107.701614      383.806091    ;  uncertainty theta = 0.001826, k = 0.085807
         3         9         8     1      109.767532      550.276378    ;  uncertainty theta = 0.003354, k = 0.117237
         3         9        45     1      107.465858      382.472990    ;  uncertainty theta = 0.000820, k = 0.036021
         3         9        46     1      107.465858      382.472990    ;  uncertainty theta = 0.000820, k = 0.036021
         4         1        54     1      120.022385      446.846456    ;  uncertainty theta = 0.007023, k = 0.196721
         5         3         9     1      109.391991      551.858849    ;  uncertainty theta = 0.001389, k = 0.239093
         5         3        17     1      107.487534      381.923655    ;  uncertainty theta = 0.002488, k = 0.092432
         5         6         7     1      110.155777      537.181906    ;  uncertainty theta = 0.003354, k = 0.119115
         5         6        40     1      107.460854      385.063155    ;  uncertainty theta = 0.000653, k = 0.058631
         5         6        41     1      107.460854      385.063155    ;  uncertainty theta = 0.000653, k = 0.058631
         5        10        11     1      116.256470      438.591490    ;  uncertainty theta = 0.006636, k = 0.182671
         5        10        18     1      112.697777      315.756941    ;  uncertainty theta = 0.001526, k = 0.296885
         6         5        10     1      110.224083      630.160670    ;  uncertainty theta = 0.002121, k = 0.087819
         6         5        53     1      108.606544      408.575938    ;  uncertainty theta = 0.001745, k = 0.034990
         6         7         8     1      109.900391      583.567575    ;  uncertainty theta = 0.002330, k = 0.083135
         6         7        35     1      108.569168      489.144113    ;  uncertainty theta = 0.003757, k = 0.073146
         6         7        42     1      107.332260      401.082169    ;  uncertainty theta = 0.002516, k = 0.077903
         7         6        40     1      108.676857      396.198101    ;  uncertainty theta = 0.000795, k = 0.026396
         7         6        41     1      108.676857      396.198101    ;  uncertainty theta = 0.000795, k = 0.026396
         7         8         9     1      109.786987      580.835360    ;  uncertainty theta = 0.001913, k = 0.141340
         7         8        43     1      108.292625      386.614311    ;  uncertainty theta = 0.000735, k = 0.019139
         7         8        44     1      108.292625      386.614311    ;  uncertainty theta = 0.000735, k = 0.019139
         7        35        36     1      123.648819      547.647652    ;  uncertainty theta = 0.003749, k = 0.250532
         7        35        37     1      114.135170      399.306701    ;  uncertainty theta = 0.002339, k = 0.216014
         8         7        35     1      108.943726      496.415422    ;  uncertainty theta = 0.001979, k = 0.055108
         8         7        42     1      107.694107      403.879791    ;  uncertainty theta = 0.001685, k = 0.082263
         8         9        45     1      108.763489      400.577939    ;  uncertainty theta = 0.001541, k = 0.036918
         8         9        46     1      108.763489      400.577939    ;  uncertainty theta = 0.001541, k = 0.036918
         9         3        17     1      108.924561      410.749689    ;  uncertainty theta = 0.001565, k = 0.069763
         9         8        43     1      108.482079      402.739687    ;  uncertainty theta = 0.000859, k = 0.036544
         9         8        44     1      108.482079      402.739687    ;  uncertainty theta = 0.000859, k = 0.036544
        10         5        53     1      105.246643      446.517028    ;  uncertainty theta = 0.004204, k = 0.177955
        10        11        12     1      113.070839      435.784547    ;  uncertainty theta = 0.006920, k = 0.140238
        10        11        13     1      124.950012      804.911939    ;  uncertainty theta = 0.003994, k = 0.055585
        11        10        18     1      116.250000      347.593576    ;  uncertainty theta = 0.004441, k = 0.081627
        11        12        14     1      122.197128      370.860213    ;  uncertainty theta = 0.005964, k = 0.255742
        11        12        15     1      118.123451      287.405674    ;  uncertainty theta = 0.005808, k = 0.204925
        12        11        13     1      120.002197      453.227350    ;  uncertainty theta = 0.007890, k = 0.121396
        12        14        19     1      111.845421      637.059456    ;  uncertainty theta = 0.004719, k = 0.108197
        12        15        20     1       89.170425     1132.634133    ;  uncertainty theta = 0.004755, k = 0.314956
        14        12        15     1      116.136452      646.965173    ;  uncertainty theta = 0.002239, k = 0.246117
        14        19        20     1      115.716957      690.992937    ;  uncertainty theta = 0.003156, k = 0.158093
        14        19        24     1      124.040390      433.932787    ;  uncertainty theta = 0.004363, k = 0.201750
        15        20        19     1      109.672325      507.238336    ;  uncertainty theta = 0.002750, k = 0.124654
        15        20        21     1      124.458923      318.004972    ;  uncertainty theta = 0.003631, k = 0.249957
        19        20        21     1      122.449425      322.713122    ;  uncertainty theta = 0.004108, k = 0.373686
        19        24        23     1      106.939438      596.797522    ;  uncertainty theta = 0.003584, k = 0.044131
        19        24        30     1      108.548073      392.911220    ;  uncertainty theta = 0.001454, k = 0.086868
        19        24        31     1      108.548073      392.911220    ;  uncertainty theta = 0.001454, k = 0.086868
        20        19        24     1      120.498146      325.489963    ;  uncertainty theta = 0.004995, k = 0.174544
        20        21        22     1      109.701111      686.046080    ;  uncertainty theta = 0.001850, k = 0.201796
        20        21        26     1      108.925659      409.463193    ;  uncertainty theta = 0.001395, k = 0.154098
        20        21        27     1      108.925659      409.463193    ;  uncertainty theta = 0.001395, k = 0.154098
        21        22        23     1      108.084244      491.834927    ;  uncertainty theta = 0.003315, k = 0.091086
        21        22        25     1      107.580322      510.743273    ;  uncertainty theta = 0.002764, k = 0.057722
        22        21        26     1      109.358154      448.409487    ;  uncertainty theta = 0.001850, k = 0.074310
        22        21        27     1      109.358154      448.409487    ;  uncertainty theta = 0.001850, k = 0.074310
        22        23        24     1      112.487526      700.788206    ;  uncertainty theta = 0.002677, k = 0.118016
        22        23        28     1      108.920166      453.721493    ;  uncertainty theta = 0.001526, k = 0.064884
        22        23        29     1      108.920166      453.721493    ;  uncertainty theta = 0.001526, k = 0.064884
        22        25        32     1      110.438461      450.024231    ;  uncertainty theta = 0.001821, k = 0.029766
        22        25        33     1      110.438461      450.024231    ;  uncertainty theta = 0.001821, k = 0.029766
        22        25        34     1      110.438461      450.024231    ;  uncertainty theta = 0.001821, k = 0.029766
        23        22        25     1      108.245483      523.945384    ;  uncertainty theta = 0.002945, k = 0.105030
        23        24        30     1      108.704140      394.566535    ;  uncertainty theta = 0.001154, k = 0.056791
        23        24        31     1      108.704140      394.566535    ;  uncertainty theta = 0.001154, k = 0.056791
        24        23        28     1      108.660522      413.983038    ;  uncertainty theta = 0.001451, k = 0.079858
        24        23        29     1      108.660522      413.983038    ;  uncertainty theta = 0.001451, k = 0.079858
        26        21        27     1      104.710770      316.430897    ;  uncertainty theta = 0.002647, k = 0.058044
        28        23        29     1      105.686386      320.062785    ;  uncertainty theta = 0.001993, k = 0.069558
        30        24        31     1      105.018166      307.701164    ;  uncertainty theta = 0.001306, k = 0.028790
        32        25        33     1      106.707680      321.292396    ;  uncertainty theta = 0.002211, k = 0.028957
        32        25        34     1      106.707680      321.292396    ;  uncertainty theta = 0.002211, k = 0.028957
        33        25        34     1      106.707680      321.292396    ;  uncertainty theta = 0.002211, k = 0.028957
        35         7        42     1      106.313622      362.200292    ;  uncertainty theta = 0.002423, k = 0.146630
        35        37        38     1      116.622971      385.561065    ;  uncertainty theta = 0.001770, k = 0.124804
        35        37        39     1      116.622971      385.561065    ;  uncertainty theta = 0.001770, k = 0.124804
        36        35        37     1      123.396584      724.695474    ;  uncertainty theta = 0.001503, k = 0.174408
        37        38        47     1      109.352982      479.364486    ;  uncertainty theta = 0.001224, k = 0.042687
        37        38        48     1      109.352982      479.364486    ;  uncertainty theta = 0.001224, k = 0.042687
        37        38        49     1      109.352982      479.364486    ;  uncertainty theta = 0.001224, k = 0.042687
        37        39        50     1      109.352982      479.364486    ;  uncertainty theta = 0.001224, k = 0.042687
        37        39        51     1      109.352982      479.364486    ;  uncertainty theta = 0.001224, k = 0.042687
        37        39        52     1      109.352982      479.364486    ;  uncertainty theta = 0.001224, k = 0.042687
        38        37        39     1      118.428360      428.731644    ;  uncertainty theta = 0.003391, k = 0.223109
        40         6        41     1      105.326035      326.596294    ;  uncertainty theta = 0.002223, k = 0.051835
        43         8        44     1      104.655197      318.642921    ;  uncertainty theta = 0.002537, k = 0.034949
        45         9        46     1      105.089188      316.666285    ;  uncertainty theta = 0.002339, k = 0.045277
        47        38        48     1      106.824196      329.099123    ;  uncertainty theta = 0.001131, k = 0.027019
        47        38        49     1      106.824196      329.099123    ;  uncertainty theta = 0.001131, k = 0.027019
        48        38        49     1      106.824196      329.099123    ;  uncertainty theta = 0.001131, k = 0.027019
        50        39        51     1      106.824196      329.099123    ;  uncertainty theta = 0.001131, k = 0.027019
        50        39        52     1      106.824196      329.099123    ;  uncertainty theta = 0.001131, k = 0.027019
        51        39        52     1      106.824196      329.099123    ;  uncertainty theta = 0.001131, k = 0.027019
        54        55        57     1      111.342751      660.941761    ;  uncertainty theta = 0.003800, k = 0.223968
        54        56        58     1       88.754929     1169.632935    ;  uncertainty theta = 0.001516, k = 0.171542
        55        54        56     1      117.771301      665.651187    ;  uncertainty theta = 0.002388, k = 0.163226
        55        57        58     1      115.285294      669.144153    ;  uncertainty theta = 0.002792, k = 0.161798
        55        57        62     1      125.751511      450.019123    ;  uncertainty theta = 0.003131, k = 0.116468
        56        58        57     1      109.432419      511.926184    ;  uncertainty theta = 0.003431, k = 0.174990
        56        58        59     1      128.712448      373.365435    ;  uncertainty theta = 0.004823, k = 0.130994
        57        58        59     1      118.497864      374.829925    ;  uncertainty theta = 0.004782, k = 0.077931
        57        62        61     1      116.635925      514.550473    ;  uncertainty theta = 0.003104, k = 0.039690
        57        62        66     1      121.183815      276.165355    ;  uncertainty theta = 0.004244, k = 0.076531
        58        57        62     1      118.551598      387.384383    ;  uncertainty theta = 0.002847, k = 0.119962
        58        59        60     1      118.073853      509.574695    ;  uncertainty theta = 0.002752, k = 0.038958
        58        59        63     1      122.267677      294.409896    ;  uncertainty theta = 0.001970, k = 0.053417
        59        60        61     1      120.592331      509.999121    ;  uncertainty theta = 0.001885, k = 0.062730
        59        60        64     1      120.338600      281.168745    ;  uncertainty theta = 0.000891, k = 0.058939
        60        59        63     1      120.194748      279.273509    ;  uncertainty theta = 0.002148, k = 0.027963
        60        61        62     1      123.149696      389.808078    ;  uncertainty theta = 0.002676, k = 0.131202
        60        61        65     1      119.594849      454.276478    ;  uncertainty theta = 0.001159, k = 0.061822
        61        60        64     1      120.427017      288.027311    ;  uncertainty theta = 0.002010, k = 0.051234
        61        62        66     1      122.345825      285.932981    ;  uncertainty theta = 0.003538, k = 0.122045
        62        61        65     1      120.384117      439.722784    ;  uncertainty theta = 0.001069, k = 0.050835

[ dihedrals ] ; propers for gromacs 4.5 or higher, use funct 9
;       ai        aj        ak        al funct           phase               k        pn
         1         2         3         5     9        0.000000        0.735908         1    ;  uncertainty k = 0.570998
         1         2         3         5     9      180.000000        0.229325         2    ;  uncertainty k = 0.196219
         1         2         3         5     9        0.000000       -0.110707         3    ;  uncertainty k = 0.119068
         1         2         3         5     9      180.000000        0.441574         4    ;  uncertainty k = 0.211228
         1         2         3         9     9        0.000000        0.399613         1    ;  uncertainty k = 0.414143
         1         2         3         9     9      180.000000        0.095515         2    ;  uncertainty k = 0.390343
         1         2         3         9     9        0.000000        0.196937         3    ;  uncertainty k = 0.082969
         1         2         3         9     9      180.000000        0.331112         4    ;  uncertainty k = 0.156658
         1         2         3        17     9        0.000000        1.131523         1    ;  uncertainty k = 0.276980
         1         2         3        17     9      180.000000       -0.421502         2    ;  uncertainty k = 0.196014
         1         2         3        17     9        0.000000        0.075272         3    ;  uncertainty k = 0.085581
         1         2         3        17     9      180.000000        0.207655         4    ;  uncertainty k = 0.055949
         1        54        55        57     9        0.000000        0.619934         1    ;  uncertainty k = 0.611386
         1        54        55        57     9      180.000000       20.808576         2    ;  uncertainty k = 0.332182
         1        54        55        57     9        0.000000        2.201462         3    ;  uncertainty k = 0.239412
         1        54        55        57     9      180.000000        1.386494         4    ;  uncertainty k = 0.621528
         1        54        56        58     9        0.000000        0.021708         1    ;  uncertainty k = 1.164708
         1        54        56        58     9      180.000000        9.034707         2    ;  uncertainty k = 1.038766
         1        54        56        58     9        0.000000        0.918284         3    ;  uncertainty k = 1.005350
         1        54        56        58     9      180.000000        0.533576         4    ;  uncertainty k = 0.389942
         2         1        54        55     9        0.000000        2.229156         1    ;  uncertainty k = 1.066480
         2         1        54        55     9      180.000000        2.381789         2    ;  uncertainty k = 0.192607
         2         1        54        55     9        0.000000       -0.023357         3    ;  uncertainty k = 0.114502
         2         1        54        55     9      180.000000       -0.098126         4    ;  uncertainty k = 0.141768
         2         1        54        56     9        0.000000        3.003663         1    ;  uncertainty k = 0.943581
         2         1        54        56     9      180.000000        3.167921         2    ;  uncertainty k = 0.494745
         2         1        54        56     9        0.000000        0.990119         3    ;  uncertainty k = 0.402593
         2         1        54        56     9      180.000000       -0.337057         4    ;  uncertainty k = 0.111480
         2         3         5         6     9        0.000000       -2.769942         1    ;  uncertainty k = 0.570466
         2         3         5         6     9      180.000000       -0.316394         2    ;  uncertainty k = 0.370308
         2         3         5         6     9        0.000000        0.543708         3    ;  uncertainty k = 0.185535
         2         3         5         6     9      180.000000       -0.057932         4    ;  uncertainty k = 0.137605
         2         3         5        10     9        0.000000        0.297339         1    ;  uncertainty k = 0.938106
         2         3         5        10     9      180.000000       -1.173397         2    ;  uncertainty k = 0.736266
         2         3         5        10     9        0.000000        0.339577         3    ;  uncertainty k = 0.408370
         2         3         5        10     9      180.000000       -0.058546         4    ;  uncertainty k = 0.372460
         2         3         5        53     9        0.000000       -0.003322         1    ;  uncertainty k = 1.045395
         2         3         5        53     9      180.000000       -1.426742         2    ;  uncertainty k = 0.492591
         2         3         5        53     9        0.000000        0.495856         3    ;  uncertainty k = 0.268974
         2         3         5        53     9      180.000000       -0.263404         4    ;  uncertainty k = 0.120667
         2         3         9         8     9        0.000000       -4.137957         1    ;  uncertainty k = 0.759183
         2         3         9         8     9      180.000000        0.205935         2    ;  uncertainty k = 0.177637
         2         3         9         8     9        0.000000        0.862549         3    ;  uncertainty k = 0.110350
         2         3         9         8     9      180.000000       -0.154654         4    ;  uncertainty k = 0.123732
         2         3         9        45     9        0.000000       -0.433060         1    ;  uncertainty k = 0.598828
         2         3         9        45     9      180.000000       -1.385901         2    ;  uncertainty k = 0.405912
         2         3         9        45     9        0.000000        0.934356         3    ;  uncertainty k = 0.119765
         2         3         9        45     9      180.000000       -0.293071         4    ;  uncertainty k = 0.072157
         2         3         9        46     9        0.000000       -0.433060         1    ;  uncertainty k = 0.598828
         2         3         9        46     9      180.000000       -1.385901         2    ;  uncertainty k = 0.405912
         2         3         9        46     9        0.000000        0.934356         3    ;  uncertainty k = 0.119765
         2         3         9        46     9      180.000000       -0.293071         4    ;  uncertainty k = 0.072157
         3         2         1         4     9        0.000000        4.110669         1    ;  uncertainty k = 1.251137
         3         2         1         4     9      180.000000       13.385029         2    ;  uncertainty k = 0.137912
         3         2         1         4     9        0.000000        0.399252         3    ;  uncertainty k = 0.254359
         3         2         1         4     9      180.000000       -0.352431         4    ;  uncertainty k = 0.110772
         3         2         1        54     9        0.000000        3.633540         1    ;  uncertainty k = 1.287038
         3         2         1        54     9      180.000000       12.973270         2    ;  uncertainty k = 0.318381
         3         2         1        54     9        0.000000        1.286235         3    ;  uncertainty k = 0.329970
         3         2         1        54     9      180.000000       -1.469040         4    ;  uncertainty k = 0.485468
         3         5         6         7     9        0.000000       -1.403536         1    ;  uncertainty k = 2.710550
         3         5         6         7     9      180.000000       -1.363336         2    ;  uncertainty k = 1.239692
         3         5         6         7     9        0.000000        0.525699         3    ;  uncertainty k = 0.492708
         3         5         6         7     9      180.000000       -1.214608         4    ;  uncertainty k = 0.206004
         3         5         6        40     9        0.000000       -0.888307         1    ;  uncertainty k = 0.512838
         3         5         6        40     9      180.000000       -0.614874         2    ;  uncertainty k = 0.172888
         3         5         6        40     9        0.000000        0.127598         3    ;  uncertainty k = 0.059935
         3         5         6        40     9      180.000000       -0.135455         4    ;  uncertainty k = 0.112819
         3         5         6        41     9        0.000000       -0.888307         1    ;  uncertainty k = 0.512838
         3         5         6        41     9      180.000000       -0.614874         2    ;  uncertainty k = 0.172888
         3         5         6        41     9        0.000000        0.127598         3    ;  uncertainty k = 0.059935
         3         5         6        41     9      180.000000       -0.135455         4    ;  uncertainty k = 0.112819
         3         5        10        11     9        0.000000        0.804130         1    ;  uncertainty k = 0.614463
         3         5        10        11     9      180.000000        0.230391         2    ;  uncertainty k = 0.164408
         3         5        10        11     9        0.000000       -0.091394         3    ;  uncertainty k = 0.112716
         3         5        10        11     9      180.000000        0.457653         4    ;  uncertainty k = 0.213143
         3         5        10        18     9        0.000000        2.627686         1    ;  uncertainty k = 0.632165
         3         5        10        18     9      180.000000       -1.562070         2    ;  uncertainty k = 0.400843
         3         5        10        18     9        0.000000        0.521263         3    ;  uncertainty k = 0.251842
         3         5        10        18     9      180.000000        0.165014         4    ;  uncertainty k = 0.147515
         3         9         8         7     9        0.000000       -5.532400         1    ;  uncertainty k = 0.761447
         3         9         8         7     9      180.000000       -1.075193         2    ;  uncertainty k = 0.642699
         3         9         8         7     9        0.000000        1.429648         3    ;  uncertainty k = 0.143432
         3         9         8         7     9      180.000000       -1.195596         4    ;  uncertainty k = 0.210640
         3         9         8        43     9        0.000000       -1.165483         1    ;  uncertainty k = 0.421102
         3         9         8        43     9      180.000000       -0.680787         2    ;  uncertainty k = 0.280643
         3         9         8        43     9        0.000000        0.406701         3    ;  uncertainty k = 0.183792
         3         9         8        43     9      180.000000       -0.084345         4    ;  uncertainty k = 0.032229
         3         9         8        44     9        0.000000       -1.165483         1    ;  uncertainty k = 0.421102
         3         9         8        44     9      180.000000       -0.680787         2    ;  uncertainty k = 0.280643
         3         9         8        44     9        0.000000        0.406701         3    ;  uncertainty k = 0.183792
         3         9         8        44     9      180.000000       -0.084345         4    ;  uncertainty k = 0.032229
         4         1         2        16     9        0.000000        2.041991         1    ;  uncertainty k = 0.787864
         4         1         2        16     9      180.000000       14.836783         2    ;  uncertainty k = 0.345289
         4         1         2        16     9        0.000000        1.836091         3    ;  uncertainty k = 0.232583
         4         1         2        16     9      180.000000       -0.509010         4    ;  uncertainty k = 0.279560
         4         1        54        55     9        0.000000       -1.039906         1    ;  uncertainty k = 1.066468
         4         1        54        55     9      180.000000        3.248319         2    ;  uncertainty k = 0.293982
         4         1        54        55     9        0.000000        0.519166         3    ;  uncertainty k = 0.256156
         4         1        54        55     9      180.000000        0.195755         4    ;  uncertainty k = 0.111290
         4         1        54        56     9        0.000000       -0.921777         1    ;  uncertainty k = 0.630600
         4         1        54        56     9      180.000000        4.377555         2    ;  uncertainty k = 0.465934
         4         1        54        56     9        0.000000        0.007343         3    ;  uncertainty k = 0.147861
         4         1        54        56     9      180.000000        0.244400         4    ;  uncertainty k = 0.213480
         5         3         2        16     9        0.000000        2.622246         1    ;  uncertainty k = 0.629256
         5         3         2        16     9      180.000000       -1.576789         2    ;  uncertainty k = 0.393755
         5         3         2        16     9        0.000000        0.520756         3    ;  uncertainty k = 0.252431
         5         3         2        16     9      180.000000        0.152457         4    ;  uncertainty k = 0.148304
         5         3         9         8     9        0.000000       -4.769872         1    ;  uncertainty k = 1.480362
         5         3         9         8     9      180.000000        0.198915         2    ;  uncertainty k = 0.738122
         5         3         9         8     9        0.000000        0.924596         3    ;  uncertainty k = 0.339565
         5         3         9         8     9      180.000000       -1.205719         4    ;  uncertainty k = 0.155358
         5         3         9        45     9        0.000000       -0.737775         1    ;  uncertainty k = 0.621436
         5         3         9        45     9      180.000000       -0.673841         2    ;  uncertainty k = 0.263597
         5         3         9        45     9        0.000000        0.105517         3    ;  uncertainty k = 0.044632
         5         3         9        45     9      180.000000       -0.121331         4    ;  uncertainty k = 0.093696
         5         3         9        46     9        0.000000       -0.737775         1    ;  uncertainty k = 0.621436
         5         3         9        46     9      180.000000       -0.673841         2    ;  uncertainty k = 0.263597
         5         3         9        46     9        0.000000        0.105517         3    ;  uncertainty k = 0.044632
         5         3         9        46     9      180.000000       -0.121331         4    ;  uncertainty k = 0.093696
         5         6         7         8     9        0.000000       -3.685858         1    ;  uncertainty k = 1.543474
         5         6         7         8     9      180.000000       -0.285065         2    ;  uncertainty k = 0.572018
         5         6         7         8     9        0.000000        0.981156         3    ;  uncertainty k = 0.134158
         5         6         7         8     9      180.000000       -1.148830         4    ;  uncertainty k = 0.219793
         5         6         7        35     9        0.000000       -1.988880         1    ;  uncertainty k = 0.819118
         5         6         7        35     9      180.000000       -0.959087         2    ;  uncertainty k = 0.272882
         5         6         7        35     9        0.000000        0.443360         3    ;  uncertainty k = 0.318150
         5         6         7        35     9      180.000000        0.183680         4    ;  uncertainty k = 0.094585
         5         6         7        42     9        0.000000       -1.930129         1    ;  uncertainty k = 0.461178
         5         6         7        42     9      180.000000       -0.446539         2    ;  uncertainty k = 0.219585
         5         6         7        42     9        0.000000        0.087588         3    ;  uncertainty k = 0.087001
         5         6         7        42     9      180.000000       -0.164536         4    ;  uncertainty k = 0.141862
         5        10        11        12     9        0.000000        3.955843         1    ;  uncertainty k = 1.375018
         5        10        11        12     9      180.000000       12.511310         2    ;  uncertainty k = 0.157161
         5        10        11        12     9        0.000000        1.265290         3    ;  uncertainty k = 0.258416
         5        10        11        12     9      180.000000       -1.434391         4    ;  uncertainty k = 0.492912
         5        10        11        13     9        0.000000        4.208886         1    ;  uncertainty k = 1.051963
         5        10        11        13     9      180.000000       13.258813         2    ;  uncertainty k = 0.102362
         5        10        11        13     9        0.000000        0.423146         3    ;  uncertainty k = 0.283109
         5        10        11        13     9      180.000000       -0.345444         4    ;  uncertainty k = 0.133898
         6         5         3         9     9        0.000000       -1.439958         1    ;  uncertainty k = 2.535778
         6         5         3         9     9      180.000000        0.537649         2    ;  uncertainty k = 0.954843
         6         5         3         9     9        0.000000        0.424309         3    ;  uncertainty k = 0.501708
         6         5         3         9     9      180.000000       -1.115568         4    ;  uncertainty k = 0.260828
         6         5         3        17     9        0.000000       -1.272644         1    ;  uncertainty k = 0.314685
         6         5         3        17     9      180.000000       -0.199433         2    ;  uncertainty k = 0.247508
         6         5         3        17     9        0.000000       -0.231263         3    ;  uncertainty k = 0.061795
         6         5         3        17     9      180.000000       -0.146401         4    ;  uncertainty k = 0.052111
         6         5        10        11     9        0.000000        0.365179         1    ;  uncertainty k = 0.381956
         6         5        10        11     9      180.000000        0.212131         2    ;  uncertainty k = 0.301001
         6         5        10        11     9        0.000000        0.181087         3    ;  uncertainty k = 0.072733
         6         5        10        11     9      180.000000        0.343018         4    ;  uncertainty k = 0.126684
         6         5        10        18     9        0.000000        0.944364         1    ;  uncertainty k = 0.463017
         6         5        10        18     9      180.000000       -0.511752         2    ;  uncertainty k = 0.348976
         6         5        10        18     9        0.000000        0.327111         3    ;  uncertainty k = 0.178626
         6         5        10        18     9      180.000000        0.059980         4    ;  uncertainty k = 0.085878
         6         7         8         9     9        0.000000       -5.487464         1    ;  uncertainty k = 0.622101
         6         7         8         9     9      180.000000        0.630063         2    ;  uncertainty k = 0.545359
         6         7         8         9     9        0.000000        1.367198         3    ;  uncertainty k = 0.173804
         6         7         8         9     9      180.000000       -1.032851         4    ;  uncertainty k = 0.273094
         6         7         8        43     9        0.000000       -1.226844         1    ;  uncertainty k = 0.266748
         6         7         8        43     9      180.000000       -0.345485         2    ;  uncertainty k = 0.101300
         6         7         8        43     9        0.000000        0.394880         3    ;  uncertainty k = 0.108227
         6         7         8        43     9      180.000000       -0.070781         4    ;  uncertainty k = 0.048007
         6         7         8        44     9        0.000000       -1.226844         1    ;  uncertainty k = 0.266748
         6         7         8        44     9      180.000000       -0.345485         2    ;  uncertainty k = 0.101300
         6         7         8        44     9        0.000000        0.394880         3    ;  uncertainty k = 0.108227
         6         7         8        44     9      180.000000       -0.070781         4    ;  uncertainty k = 0.048007
         6         7        35        36     9        0.000000       -1.170185         1    ;  uncertainty k = 0.334655
         6         7        35        36     9      180.000000        4.880266         2    ;  uncertainty k = 0.323686
         6         7        35        36     9        0.000000        1.279706         3    ;  uncertainty k = 0.118363
         6         7        35        36     9      180.000000        0.575624         4    ;  uncertainty k = 0.083005
         6         7        35        37     9        0.000000       -1.631697         1    ;  uncertainty k = 0.279350
         6         7        35        37     9      180.000000        3.392199         2    ;  uncertainty k = 0.510159
         6         7        35        37     9        0.000000        0.814553         3    ;  uncertainty k = 0.127255
         6         7        35        37     9      180.000000        0.128487         4    ;  uncertainty k = 0.053904
         7         6         5        10     9        0.000000       -2.823350         1    ;  uncertainty k = 0.488930
         7         6         5        10     9      180.000000       -0.460801         2    ;  uncertainty k = 0.536332
         7         6         5        10     9        0.000000        0.760014         3    ;  uncertainty k = 0.189206
         7         6         5        10     9      180.000000       -0.140462         4    ;  uncertainty k = 0.174339
         7         6         5        53     9        0.000000       -0.729544         1    ;  uncertainty k = 0.497030
         7         6         5        53     9      180.000000       -0.791957         2    ;  uncertainty k = 0.456970
         7         6         5        53     9        0.000000       -0.041902         3    ;  uncertainty k = 0.196139
         7         6         5        53     9      180.000000       -0.091107         4    ;  uncertainty k = 0.082280
         7         8         9        45     9        0.000000       -1.242142         1    ;  uncertainty k = 0.333100
         7         8         9        45     9      180.000000       -0.547474         2    ;  uncertainty k = 0.199769
         7         8         9        45     9        0.000000        0.486958         3    ;  uncertainty k = 0.161841
         7         8         9        45     9      180.000000       -0.063234         4    ;  uncertainty k = 0.050819
         7         8         9        46     9        0.000000       -1.242142         1    ;  uncertainty k = 0.333100
         7         8         9        46     9      180.000000       -0.547474         2    ;  uncertainty k = 0.199769
         7         8         9        46     9        0.000000        0.486958         3    ;  uncertainty k = 0.161841
         7         8         9        46     9      180.000000       -0.063234         4    ;  uncertainty k = 0.050819
         7        35        37        38     9        0.000000        9.050821         1    ;  uncertainty k = 0.304912
         7        35        37        38     9      180.000000        6.374692         2    ;  uncertainty k = 0.405917
         7        35        37        38     9        0.000000        1.178678         3    ;  uncertainty k = 0.297789
         7        35        37        38     9      180.000000        0.054538         4    ;  uncertainty k = 0.124306
         7        35        37        39     9        0.000000        9.050821         1    ;  uncertainty k = 0.304912
         7        35        37        39     9      180.000000        6.374692         2    ;  uncertainty k = 0.405917
         7        35        37        39     9        0.000000        1.178678         3    ;  uncertainty k = 0.297789
         7        35        37        39     9      180.000000        0.054538         4    ;  uncertainty k = 0.124306
         8         7         6        40     9        0.000000       -1.411123         1    ;  uncertainty k = 0.345622
         8         7         6        40     9      180.000000       -0.225290         2    ;  uncertainty k = 0.172594
         8         7         6        40     9        0.000000        0.346843         3    ;  uncertainty k = 0.114252
         8         7         6        40     9      180.000000       -0.038457         4    ;  uncertainty k = 0.044896
         8         7         6        41     9        0.000000       -1.411123         1    ;  uncertainty k = 0.345622
         8         7         6        41     9      180.000000       -0.225290         2    ;  uncertainty k = 0.172594
         8         7         6        41     9        0.000000        0.346843         3    ;  uncertainty k = 0.114252
         8         7         6        41     9      180.000000       -0.038457         4    ;  uncertainty k = 0.044896
         8         7        35        36     9        0.000000       -1.412751         1    ;  uncertainty k = 0.366362
         8         7        35        36     9      180.000000        4.939282         2    ;  uncertainty k = 0.250194
         8         7        35        36     9        0.000000        1.341107         3    ;  uncertainty k = 0.099404
         8         7        35        36     9      180.000000        0.562838         4    ;  uncertainty k = 0.064019
         8         7        35        37     9        0.000000       -1.501807         1    ;  uncertainty k = 0.463410
         8         7        35        37     9      180.000000        3.323275         2    ;  uncertainty k = 0.502078
         8         7        35        37     9        0.000000        0.807080         3    ;  uncertainty k = 0.124119
         8         7        35        37     9      180.000000        0.125518         4    ;  uncertainty k = 0.039696
         8         9         3        17     9        0.000000       -1.453435         1    ;  uncertainty k = 0.298675
         8         9         3        17     9      180.000000       -0.243236         2    ;  uncertainty k = 0.224803
         8         9         3        17     9        0.000000        0.032584         3    ;  uncertainty k = 0.097149
         8         9         3        17     9      180.000000       -0.150912         4    ;  uncertainty k = 0.109817
         9         3         2        16     9        0.000000        0.700156         1    ;  uncertainty k = 0.738827
         9         3         2        16     9      180.000000       -0.411505         2    ;  uncertainty k = 0.369486
         9         3         2        16     9        0.000000        0.287416         3    ;  uncertainty k = 0.146101
         9         3         2        16     9      180.000000        0.045415         4    ;  uncertainty k = 0.075733
         9         3         5        10     9        0.000000       -2.798525         1    ;  uncertainty k = 0.457573
         9         3         5        10     9      180.000000       -0.125197         2    ;  uncertainty k = 0.416357
         9         3         5        10     9        0.000000        0.580620         3    ;  uncertainty k = 0.175294
         9         3         5        10     9      180.000000       -0.069893         4    ;  uncertainty k = 0.192653
         9         3         5        53     9        0.000000       -1.270533         1    ;  uncertainty k = 0.267237
         9         3         5        53     9      180.000000       -0.294026         2    ;  uncertainty k = 0.377247
         9         3         5        53     9        0.000000       -0.214747         3    ;  uncertainty k = 0.084355
         9         3         5        53     9      180.000000       -0.166179         4    ;  uncertainty k = 0.070556
         9         8         7        35     9        0.000000       -3.041090         1    ;  uncertainty k = 1.250697
         9         8         7        35     9      180.000000       -0.383141         2    ;  uncertainty k = 0.506412
         9         8         7        35     9        0.000000        0.568121         3    ;  uncertainty k = 0.143697
         9         8         7        35     9      180.000000        0.124098         4    ;  uncertainty k = 0.149878
         9         8         7        42     9        0.000000       -2.462407         1    ;  uncertainty k = 0.395127
         9         8         7        42     9      180.000000        0.138659         2    ;  uncertainty k = 0.106163
         9         8         7        42     9        0.000000        0.247790         3    ;  uncertainty k = 0.112075
         9         8         7        42     9      180.000000       -0.234904         4    ;  uncertainty k = 0.140378
        10         5         3        17     9        0.000000        0.055743         1    ;  uncertainty k = 1.095471
        10         5         3        17     9      180.000000       -1.465724         2    ;  uncertainty k = 0.521657
        10         5         3        17     9        0.000000        0.493179         3    ;  uncertainty k = 0.272582
        10         5         3        17     9      180.000000       -0.254856         4    ;  uncertainty k = 0.122200
        10         5         6        40     9        0.000000       -0.426053         1    ;  uncertainty k = 0.715619
        10         5         6        40     9      180.000000       -1.218663         2    ;  uncertainty k = 0.323961
        10         5         6        40     9        0.000000        0.959757         3    ;  uncertainty k = 0.057975
        10         5         6        40     9      180.000000       -0.287486         4    ;  uncertainty k = 0.054397
        10         5         6        41     9        0.000000       -0.426053         1    ;  uncertainty k = 0.715619
        10         5         6        41     9      180.000000       -1.218663         2    ;  uncertainty k = 0.323961
        10         5         6        41     9        0.000000        0.959757         3    ;  uncertainty k = 0.057975
        10         5         6        41     9      180.000000       -0.287486         4    ;  uncertainty k = 0.054397
        10        11        12        14     9        0.000000        2.331066         1    ;  uncertainty k = 1.152102
        10        11        12        14     9      180.000000        2.596169         2    ;  uncertainty k = 0.278815
        10        11        12        14     9        0.000000        0.009927         3    ;  uncertainty k = 0.144977
        10        11        12        14     9      180.000000       -0.114334         4    ;  uncertainty k = 0.149289
        10        11        12        15     9        0.000000        3.367960         1    ;  uncertainty k = 1.051353
        10        11        12        15     9      180.000000        3.218021         2    ;  uncertainty k = 0.680396
        10        11        12        15     9        0.000000        1.143577         3    ;  uncertainty k = 0.311002
        10        11        12        15     9      180.000000       -0.348976         4    ;  uncertainty k = 0.193639
        11        10         5        53     9        0.000000        1.089600         1    ;  uncertainty k = 0.336795
        11        10         5        53     9      180.000000       -0.431387         2    ;  uncertainty k = 0.172745
        11        10         5        53     9        0.000000        0.083106         3    ;  uncertainty k = 0.110757
        11        10         5        53     9      180.000000        0.217749         4    ;  uncertainty k = 0.051819
        11        12        14        19     9        0.000000        0.338836         1    ;  uncertainty k = 0.784673
        11        12        14        19     9      180.000000       19.192857         2    ;  uncertainty k = 0.359716
        11        12        14        19     9        0.000000        1.903447         3    ;  uncertainty k = 0.386883
        11        12        14        19     9      180.000000        1.368535         4    ;  uncertainty k = 0.528772
        11        12        15        20     9        0.000000        0.370727         1    ;  uncertainty k = 1.804242
        11        12        15        20     9      180.000000        8.920830         2    ;  uncertainty k = 1.081273
        11        12        15        20     9        0.000000        0.589745         3    ;  uncertainty k = 1.110553
        11        12        15        20     9      180.000000        0.676613         4    ;  uncertainty k = 0.547063
        12        11        10        18     9        0.000000       -0.086051         1    ;  uncertainty k = 0.569285
        12        11        10        18     9      180.000000        6.824223         2    ;  uncertainty k = 1.004102
        12        11        10        18     9        0.000000        2.774672         3    ;  uncertainty k = 0.278048
        12        11        10        18     9      180.000000        0.087878         4    ;  uncertainty k = 0.345011
        12        14        19        20     9        0.000000       -0.476241         1    ;  uncertainty k = 0.425307
        12        14        19        20     9      180.000000       15.671500         2    ;  uncertainty k = 0.795841
        12        14        19        20     9        0.000000       -2.864533         3    ;  uncertainty k = 0.780902
        12        14        19        20     9      180.000000        1.605024         4    ;  uncertainty k = 0.448125
        12        14        19        24     9        0.000000        0.569206         1    ;  uncertainty k = 1.621980
        12        14        19        24     9      180.000000       12.800205         2    ;  uncertainty k = 0.282748
        12        14        19        24     9        0.000000        1.817073         3    ;  uncertainty k = 0.361654
        12        14        19        24     9      180.000000        0.682642         4    ;  uncertainty k = 0.136948
        12        15        20        19     9        0.000000       -0.523789         1    ;  uncertainty k = 1.004169
        12        15        20        19     9      180.000000       13.442345         2    ;  uncertainty k = 0.923619
        12        15        20        19     9        0.000000       -9.024257         3    ;  uncertainty k = 1.660071
        12        15        20        19     9      180.000000        1.636793         4    ;  uncertainty k = 0.487983
        12        15        20        21     9        0.000000        1.116166         1    ;  uncertainty k = 1.266411
        12        15        20        21     9      180.000000       10.158909         2    ;  uncertainty k = 0.818049
        12        15        20        21     9        0.000000        0.724355         3    ;  uncertainty k = 0.566010
        12        15        20        21     9      180.000000       -0.026620         4    ;  uncertainty k = 0.200593
        13        11        10        18     9        0.000000        2.038363         1    ;  uncertainty k = 0.746143
        13        11        10        18     9      180.000000       14.699346         2    ;  uncertainty k = 0.325315
        13        11        10        18     9        0.000000        1.840592         3    ;  uncertainty k = 0.226058
        13        11        10        18     9      180.000000       -0.518143         4    ;  uncertainty k = 0.264067
        13        11        12        14     9        0.000000       -0.975565         1    ;  uncertainty k = 1.614283
        13        11        12        14     9      180.000000        3.488550         2    ;  uncertainty k = 0.286154
        13        11        12        14     9        0.000000        0.632000         3    ;  uncertainty k = 0.220397
        13        11        12        14     9      180.000000        0.223278         4    ;  uncertainty k = 0.063243
        13        11        12        15     9        0.000000       -0.928770         1    ;  uncertainty k = 0.780300
        13        11        12        15     9      180.000000        4.634695         2    ;  uncertainty k = 0.475093
        13        11        12        15     9        0.000000        0.007574         3    ;  uncertainty k = 0.071977
        13        11        12        15     9      180.000000        0.288910         4    ;  uncertainty k = 0.240907
        14        12        15        20     9        0.000000        0.143511         1    ;  uncertainty k = 1.333641
        14        12        15        20     9      180.000000       14.564367         2    ;  uncertainty k = 1.374348
        14        12        15        20     9        0.000000       -9.893199         3    ;  uncertainty k = 1.620531
        14        12        15        20     9      180.000000        1.663619         4    ;  uncertainty k = 0.759588
        14        19        20        15     9        0.000000        0.087022         1    ;  uncertainty k = 0.519435
        14        19        20        15     9      180.000000       17.308740         2    ;  uncertainty k = 0.865665
        14        19        20        15     9        0.000000       -2.374264         3    ;  uncertainty k = 0.748324
        14        19        20        15     9      180.000000        1.160228         4    ;  uncertainty k = 0.641111
        14        19        20        21     9        0.000000        0.011055         1    ;  uncertainty k = 0.425259
        14        19        20        21     9      180.000000       14.953749         2    ;  uncertainty k = 0.328993
        14        19        20        21     9        0.000000        1.241934         3    ;  uncertainty k = 0.342959
        14        19        20        21     9      180.000000        1.144042         4    ;  uncertainty k = 0.470191
        14        19        24        23     9        0.000000       -3.954572         1    ;  uncertainty k = 1.035742
        14        19        24        23     9      180.000000        1.199577         2    ;  uncertainty k = 0.494541
        14        19        24        23     9        0.000000        0.552603         3    ;  uncertainty k = 0.196554
        14        19        24        23     9      180.000000        0.408701         4    ;  uncertainty k = 0.071879
        14        19        24        30     9        0.000000        0.678330         1    ;  uncertainty k = 0.150352
        14        19        24        30     9      180.000000        1.438459         2    ;  uncertainty k = 0.504096
        14        19        24        30     9        0.000000        0.609129         3    ;  uncertainty k = 0.196471
        14        19        24        30     9      180.000000        0.167234         4    ;  uncertainty k = 0.108981
        14        19        24        31     9        0.000000        0.678330         1    ;  uncertainty k = 0.150352
        14        19        24        31     9      180.000000        1.438459         2    ;  uncertainty k = 0.504096
        14        19        24        31     9        0.000000        0.609129         3    ;  uncertainty k = 0.196471
        14        19        24        31     9      180.000000        0.167234         4    ;  uncertainty k = 0.108981
        15        12        14        19     9        0.000000       -0.152600         1    ;  uncertainty k = 0.906407
        15        12        14        19     9      180.000000       20.432965         2    ;  uncertainty k = 0.275340
        15        12        14        19     9        0.000000       -2.337892         3    ;  uncertainty k = 1.016825
        15        12        14        19     9      180.000000        1.938626         4    ;  uncertainty k = 0.362221
        15        20        19        24     9        0.000000        0.239944         1    ;  uncertainty k = 0.547138
        15        20        19        24     9      180.000000       12.400727         2    ;  uncertainty k = 0.549556
        15        20        19        24     9        0.000000        0.936373         3    ;  uncertainty k = 0.318788
        15        20        19        24     9      180.000000        0.958147         4    ;  uncertainty k = 0.190163
        15        20        21        22     9        0.000000       -8.471687         1    ;  uncertainty k = 1.305576
        15        20        21        22     9      180.000000       -0.738803         2    ;  uncertainty k = 0.986263
        15        20        21        22     9        0.000000        0.572190         3    ;  uncertainty k = 0.535086
        15        20        21        22     9      180.000000        0.223231         4    ;  uncertainty k = 0.263405
        15        20        21        26     9        0.000000        0.153964         1    ;  uncertainty k = 0.629108
        15        20        21        26     9      180.000000        0.393717         2    ;  uncertainty k = 0.317135
        15        20        21        26     9        0.000000        0.658149         3    ;  uncertainty k = 0.161833
        15        20        21        26     9      180.000000       -0.071880         4    ;  uncertainty k = 0.067074
        15        20        21        27     9        0.000000        0.153964         1    ;  uncertainty k = 0.629108
        15        20        21        27     9      180.000000        0.393717         2    ;  uncertainty k = 0.317135
        15        20        21        27     9        0.000000        0.658149         3    ;  uncertainty k = 0.161833
        15        20        21        27     9      180.000000       -0.071880         4    ;  uncertainty k = 0.067074
        16         2         1        54     9        0.000000       -0.322442         1    ;  uncertainty k = 0.659028
        16         2         1        54     9      180.000000        6.983685         2    ;  uncertainty k = 1.236265
        16         2         1        54     9        0.000000        2.714052         3    ;  uncertainty k = 0.266346
        16         2         1        54     9      180.000000        0.063259         4    ;  uncertainty k = 0.352576
        16         2         3        17     9        0.000000        0.495605         1    ;  uncertainty k = 0.385961
        16         2         3        17     9      180.000000       -0.597755         2    ;  uncertainty k = 0.199823
        16         2         3        17     9        0.000000        0.182770         3    ;  uncertainty k = 0.122994
        16         2         3        17     9      180.000000        0.182395         4    ;  uncertainty k = 0.070497
        17         3         5        53     9        0.000000        1.509901         1    ;  uncertainty k = 0.281639
        17         3         5        53     9      180.000000       -0.667418         2    ;  uncertainty k = 0.155277
        17         3         5        53     9        0.000000       -0.219007         3    ;  uncertainty k = 0.162718
        17         3         5        53     9      180.000000       -0.045329         4    ;  uncertainty k = 0.126606
        17         3         9        45     9        0.000000        1.369545         1    ;  uncertainty k = 0.284324
        17         3         9        45     9      180.000000       -0.507857         2    ;  uncertainty k = 0.209657
        17         3         9        45     9        0.000000       -0.081475         3    ;  uncertainty k = 0.113784
        17         3         9        45     9      180.000000        0.041948         4    ;  uncertainty k = 0.028210
        17         3         9        46     9        0.000000        1.369545         1    ;  uncertainty k = 0.284324
        17         3         9        46     9      180.000000       -0.507857         2    ;  uncertainty k = 0.209657
        17         3         9        46     9        0.000000       -0.081475         3    ;  uncertainty k = 0.113784
        17         3         9        46     9      180.000000        0.041948         4    ;  uncertainty k = 0.028210
        18        10         5        53     9        0.000000        0.543896         1    ;  uncertainty k = 0.397136
        18        10         5        53     9      180.000000       -0.624323         2    ;  uncertainty k = 0.182566
        18        10         5        53     9        0.000000        0.192235         3    ;  uncertainty k = 0.116009
        18        10         5        53     9      180.000000        0.189280         4    ;  uncertainty k = 0.076527
        19        20        21        22     9        0.000000       -4.140071         1    ;  uncertainty k = 1.925675
        19        20        21        22     9      180.000000        2.074247         2    ;  uncertainty k = 0.552905
        19        20        21        22     9        0.000000       -0.109904         3    ;  uncertainty k = 0.505232
        19        20        21        22     9      180.000000        0.002033         4    ;  uncertainty k = 0.168271
        19        20        21        26     9        0.000000        0.751076         1    ;  uncertainty k = 0.572851
        19        20        21        26     9      180.000000        0.321327         2    ;  uncertainty k = 0.277446
        19        20        21        26     9        0.000000       -0.191165         3    ;  uncertainty k = 0.140749
        19        20        21        26     9      180.000000       -0.337116         4    ;  uncertainty k = 0.203995
        19        20        21        27     9        0.000000        0.751076         1    ;  uncertainty k = 0.572851
        19        20        21        27     9      180.000000        0.321327         2    ;  uncertainty k = 0.277446
        19        20        21        27     9        0.000000       -0.191165         3    ;  uncertainty k = 0.140749
        19        20        21        27     9      180.000000       -0.337116         4    ;  uncertainty k = 0.203995
        19        24        23        22     9        0.000000       -2.230974         1    ;  uncertainty k = 1.801449
        19        24        23        22     9      180.000000       -1.841150         2    ;  uncertainty k = 0.733686
        19        24        23        22     9        0.000000        2.407959         3    ;  uncertainty k = 0.680334
        19        24        23        22     9      180.000000       -0.535745         4    ;  uncertainty k = 0.301690
        19        24        23        28     9        0.000000        1.199598         1    ;  uncertainty k = 0.377899
        19        24        23        28     9      180.000000       -1.613470         2    ;  uncertainty k = 0.549592
        19        24        23        28     9        0.000000        0.472706         3    ;  uncertainty k = 0.260800
        19        24        23        28     9      180.000000        0.111560         4    ;  uncertainty k = 0.091588
        19        24        23        29     9        0.000000        1.199598         1    ;  uncertainty k = 0.377899
        19        24        23        29     9      180.000000       -1.613470         2    ;  uncertainty k = 0.549592
        19        24        23        29     9        0.000000        0.472706         3    ;  uncertainty k = 0.260800
        19        24        23        29     9      180.000000        0.111560         4    ;  uncertainty k = 0.091588
        20        19        24        23     9        0.000000       -4.440652         1    ;  uncertainty k = 1.431166
        20        19        24        23     9      180.000000        4.155396         2    ;  uncertainty k = 1.296225
        20        19        24        23     9        0.000000       -0.642889         3    ;  uncertainty k = 0.597439
        20        19        24        23     9      180.000000       -0.217610         4    ;  uncertainty k = 0.318749
        20        19        24        30     9        0.000000        0.013025         1    ;  uncertainty k = 0.359065
        20        19        24        30     9      180.000000        1.250042         2    ;  uncertainty k = 0.490358
        20        19        24        30     9        0.000000        0.121610         3    ;  uncertainty k = 0.182463
        20        19        24        30     9      180.000000       -0.043715         4    ;  uncertainty k = 0.054548
        20        19        24        31     9        0.000000        0.013025         1    ;  uncertainty k = 0.359065
        20        19        24        31     9      180.000000        1.250042         2    ;  uncertainty k = 0.490358
        20        19        24        31     9        0.000000        0.121610         3    ;  uncertainty k = 0.182463
        20        19        24        31     9      180.000000       -0.043715         4    ;  uncertainty k = 0.054548
        20        21        22        23     9        0.000000       -2.931117         1    ;  uncertainty k = 2.436693
        20        21        22        23     9      180.000000       -1.451129         2    ;  uncertainty k = 0.464093
        20        21        22        23     9        0.000000        1.404828         3    ;  uncertainty k = 0.130307
        20        21        22        23     9      180.000000       -0.528609         4    ;  uncertainty k = 0.249297
        20        21        22        25     9        0.000000       -2.021362         1    ;  uncertainty k = 1.008927
        20        21        22        25     9      180.000000       -1.118312         2    ;  uncertainty k = 0.472230
        20        21        22        25     9        0.000000        1.258207         3    ;  uncertainty k = 0.234248
        20        21        22        25     9      180.000000       -0.045254         4    ;  uncertainty k = 0.250793
        21        20        19        24     9        0.000000        0.282381         1    ;  uncertainty k = 0.657141
        21        20        19        24     9      180.000000       10.551064         2    ;  uncertainty k = 0.221306
        21        20        19        24     9        0.000000        1.077819         3    ;  uncertainty k = 0.516713
        21        20        19        24     9      180.000000        0.991474         4    ;  uncertainty k = 0.186199
        21        22        23        24     9        0.000000       -4.350974         1    ;  uncertainty k = 2.057076
        21        22        23        24     9      180.000000       -1.496991         2    ;  uncertainty k = 0.799614
        21        22        23        24     9        0.000000        0.281379         3    ;  uncertainty k = 0.338606
        21        22        23        24     9      180.000000       -0.187310         4    ;  uncertainty k = 0.252807
        21        22        23        28     9        0.000000       -6.987612         1    ;  uncertainty k = 0.982733
        21        22        23        28     9      180.000000       -0.297910         2    ;  uncertainty k = 0.446998
        21        22        23        28     9        0.000000        0.675891         3    ;  uncertainty k = 0.207193
        21        22        23        28     9      180.000000       -0.045061         4    ;  uncertainty k = 0.100310
        21        22        23        29     9        0.000000       -6.987612         1    ;  uncertainty k = 0.982733
        21        22        23        29     9      180.000000       -0.297910         2    ;  uncertainty k = 0.446998
        21        22        23        29     9        0.000000        0.675891         3    ;  uncertainty k = 0.207193
        21        22        23        29     9      180.000000       -0.045061         4    ;  uncertainty k = 0.100310
        21        22        25        32     9        0.000000       -4.178510         1    ;  uncertainty k = 0.410688
        21        22        25        32     9      180.000000       -2.187807         2    ;  uncertainty k = 0.398638
        21        22        25        32     9        0.000000        1.157619         3    ;  uncertainty k = 0.069416
        21        22        25        32     9      180.000000        0.075129         4    ;  uncertainty k = 0.097696
        21        22        25        33     9        0.000000       -4.178510         1    ;  uncertainty k = 0.410688
        21        22        25        33     9      180.000000       -2.187807         2    ;  uncertainty k = 0.398638
        21        22        25        33     9        0.000000        1.157619         3    ;  uncertainty k = 0.069416
        21        22        25        33     9      180.000000        0.075129         4    ;  uncertainty k = 0.097696
        21        22        25        34     9        0.000000       -4.178510         1    ;  uncertainty k = 0.410688
        21        22        25        34     9      180.000000       -2.187807         2    ;  uncertainty k = 0.398638
        21        22        25        34     9        0.000000        1.157619         3    ;  uncertainty k = 0.069416
        21        22        25        34     9      180.000000        0.075129         4    ;  uncertainty k = 0.097696
        22        23        24        30     9        0.000000       -0.446420         1    ;  uncertainty k = 0.389425
        22        23        24        30     9      180.000000       -0.446895         2    ;  uncertainty k = 0.443633
        22        23        24        30     9        0.000000        1.043482         3    ;  uncertainty k = 0.139130
        22        23        24        30     9      180.000000       -0.054508         4    ;  uncertainty k = 0.166266
        22        23        24        31     9        0.000000       -0.446420         1    ;  uncertainty k = 0.389425
        22        23        24        31     9      180.000000       -0.446895         2    ;  uncertainty k = 0.443633
        22        23        24        31     9        0.000000        1.043482         3    ;  uncertainty k = 0.139130
        22        23        24        31     9      180.000000       -0.054508         4    ;  uncertainty k = 0.166266
        23        22        21        26     9        0.000000       -4.951174         1    ;  uncertainty k = 1.276230
        23        22        21        26     9      180.000000       -0.772512         2    ;  uncertainty k = 0.594344
        23        22        21        26     9        0.000000        0.687582         3    ;  uncertainty k = 0.234878
        23        22        21        26     9      180.000000        0.165440         4    ;  uncertainty k = 0.126758
        23        22        21        27     9        0.000000       -4.951174         1    ;  uncertainty k = 1.276230
        23        22        21        27     9      180.000000       -0.772512         2    ;  uncertainty k = 0.594344
        23        22        21        27     9        0.000000        0.687582         3    ;  uncertainty k = 0.234878
        23        22        21        27     9      180.000000        0.165440         4    ;  uncertainty k = 0.126758
        23        22        25        32     9        0.000000       -4.259086         1    ;  uncertainty k = 0.974846
        23        22        25        32     9      180.000000       -2.027003         2    ;  uncertainty k = 0.417753
        23        22        25        32     9        0.000000        1.017651         3    ;  uncertainty k = 0.103023
        23        22        25        32     9      180.000000        0.065258         4    ;  uncertainty k = 0.091860
        23        22        25        33     9        0.000000       -4.259086         1    ;  uncertainty k = 0.974846
        23        22        25        33     9      180.000000       -2.027003         2    ;  uncertainty k = 0.417753
        23        22        25        33     9        0.000000        1.017651         3    ;  uncertainty k = 0.103023
        23        22        25        33     9      180.000000        0.065258         4    ;  uncertainty k = 0.091860
        23        22        25        34     9        0.000000       -4.259086         1    ;  uncertainty k = 0.974846
        23        22        25        34     9      180.000000       -2.027003         2    ;  uncertainty k = 0.417753
        23        22        25        34     9        0.000000        1.017651         3    ;  uncertainty k = 0.103023
        23        22        25        34     9      180.000000        0.065258         4    ;  uncertainty k = 0.091860
        24        23        22        25     9        0.000000       -2.366425         1    ;  uncertainty k = 0.799682
        24        23        22        25     9      180.000000       -0.858215         2    ;  uncertainty k = 0.575132
        24        23        22        25     9        0.000000        0.300582         3    ;  uncertainty k = 0.302529
        24        23        22        25     9      180.000000        0.326407         4    ;  uncertainty k = 0.081722
        25        22        21        26     9        0.000000       -2.503106         1    ;  uncertainty k = 0.610923
        25        22        21        26     9      180.000000       -1.207857         2    ;  uncertainty k = 0.461275
        25        22        21        26     9        0.000000        0.607046         3    ;  uncertainty k = 0.147323
        25        22        21        26     9      180.000000        0.178325         4    ;  uncertainty k = 0.088460
        25        22        21        27     9        0.000000       -2.503106         1    ;  uncertainty k = 0.610923
        25        22        21        27     9      180.000000       -1.207857         2    ;  uncertainty k = 0.461275
        25        22        21        27     9        0.000000        0.607046         3    ;  uncertainty k = 0.147323
        25        22        21        27     9      180.000000        0.178325         4    ;  uncertainty k = 0.088460
        25        22        23        28     9        0.000000       -3.143701         1    ;  uncertainty k = 0.576024
        25        22        23        28     9      180.000000       -1.381403         2    ;  uncertainty k = 0.223671
        25        22        23        28     9        0.000000        0.354530         3    ;  uncertainty k = 0.126408
        25        22        23        28     9      180.000000        0.148173         4    ;  uncertainty k = 0.137426
        25        22        23        29     9        0.000000       -3.143701         1    ;  uncertainty k = 0.576024
        25        22        23        29     9      180.000000       -1.381403         2    ;  uncertainty k = 0.223671
        25        22        23        29     9        0.000000        0.354530         3    ;  uncertainty k = 0.126408
        25        22        23        29     9      180.000000        0.148173         4    ;  uncertainty k = 0.137426
        28        23        24        30     9        0.000000       -0.690419         1    ;  uncertainty k = 0.249272
        28        23        24        30     9      180.000000        0.819889         2    ;  uncertainty k = 0.297922
        28        23        24        30     9        0.000000        0.232501         3    ;  uncertainty k = 0.086816
        28        23        24        30     9      180.000000       -0.277806         4    ;  uncertainty k = 0.067741
        28        23        24        31     9        0.000000       -0.690419         1    ;  uncertainty k = 0.249272
        28        23        24        31     9      180.000000        0.819889         2    ;  uncertainty k = 0.297922
        28        23        24        31     9        0.000000        0.232501         3    ;  uncertainty k = 0.086816
        28        23        24        31     9      180.000000       -0.277806         4    ;  uncertainty k = 0.067741
        29        23        24        30     9        0.000000       -0.690419         1    ;  uncertainty k = 0.249272
        29        23        24        30     9      180.000000        0.819889         2    ;  uncertainty k = 0.297922
        29        23        24        30     9        0.000000        0.232501         3    ;  uncertainty k = 0.086816
        29        23        24        30     9      180.000000       -0.277806         4    ;  uncertainty k = 0.067741
        29        23        24        31     9        0.000000       -0.690419         1    ;  uncertainty k = 0.249272
        29        23        24        31     9      180.000000        0.819889         2    ;  uncertainty k = 0.297922
        29        23        24        31     9        0.000000        0.232501         3    ;  uncertainty k = 0.086816
        29        23        24        31     9      180.000000       -0.277806         4    ;  uncertainty k = 0.067741
        35         7         6        40     9        0.000000        2.074967         1    ;  uncertainty k = 0.921198
        35         7         6        40     9      180.000000       -0.794571         2    ;  uncertainty k = 0.180952
        35         7         6        40     9        0.000000        0.466866         3    ;  uncertainty k = 0.273235
        35         7         6        40     9      180.000000        0.035537         4    ;  uncertainty k = 0.093276
        35         7         6        41     9        0.000000        2.074967         1    ;  uncertainty k = 0.921198
        35         7         6        41     9      180.000000       -0.794571         2    ;  uncertainty k = 0.180952
        35         7         6        41     9        0.000000        0.466866         3    ;  uncertainty k = 0.273235
        35         7         6        41     9      180.000000        0.035537         4    ;  uncertainty k = 0.093276
        35         7         8        43     9        0.000000        2.252951         1    ;  uncertainty k = 0.998081
        35         7         8        43     9      180.000000       -0.859965         2    ;  uncertainty k = 0.120364
        35         7         8        43     9        0.000000        0.534711         3    ;  uncertainty k = 0.219264
        35         7         8        43     9      180.000000        0.057172         4    ;  uncertainty k = 0.086080
        35         7         8        44     9        0.000000        2.252951         1    ;  uncertainty k = 0.998081
        35         7         8        44     9      180.000000       -0.859965         2    ;  uncertainty k = 0.120364
        35         7         8        44     9        0.000000        0.534711         3    ;  uncertainty k = 0.219264
        35         7         8        44     9      180.000000        0.057172         4    ;  uncertainty k = 0.086080
        35        37        38        47     9        0.000000        0.159650         1    ;  uncertainty k = 0.146342
        35        37        38        47     9      180.000000       -0.144813         2    ;  uncertainty k = 0.094204
        35        37        38        47     9        0.000000        0.215227         3    ;  uncertainty k = 0.050987
        35        37        38        47     9      180.000000        0.244118         4    ;  uncertainty k = 0.052779
        35        37        38        48     9        0.000000        0.159650         1    ;  uncertainty k = 0.146342
        35        37        38        48     9      180.000000       -0.144813         2    ;  uncertainty k = 0.094204
        35        37        38        48     9        0.000000        0.215227         3    ;  uncertainty k = 0.050987
        35        37        38        48     9      180.000000        0.244118         4    ;  uncertainty k = 0.052779
        35        37        38        49     9        0.000000        0.159650         1    ;  uncertainty k = 0.146342
        35        37        38        49     9      180.000000       -0.144813         2    ;  uncertainty k = 0.094204
        35        37        38        49     9        0.000000        0.215227         3    ;  uncertainty k = 0.050987
        35        37        38        49     9      180.000000        0.244118         4    ;  uncertainty k = 0.052779
        35        37        39        50     9        0.000000        0.159650         1    ;  uncertainty k = 0.146342
        35        37        39        50     9      180.000000       -0.144813         2    ;  uncertainty k = 0.094204
        35        37        39        50     9        0.000000        0.215227         3    ;  uncertainty k = 0.050987
        35        37        39        50     9      180.000000        0.244118         4    ;  uncertainty k = 0.052779
        35        37        39        51     9        0.000000        0.159650         1    ;  uncertainty k = 0.146342
        35        37        39        51     9      180.000000       -0.144813         2    ;  uncertainty k = 0.094204
        35        37        39        51     9        0.000000        0.215227         3    ;  uncertainty k = 0.050987
        35        37        39        51     9      180.000000        0.244118         4    ;  uncertainty k = 0.052779
        35        37        39        52     9        0.000000        0.159650         1    ;  uncertainty k = 0.146342
        35        37        39        52     9      180.000000       -0.144813         2    ;  uncertainty k = 0.094204
        35        37        39        52     9        0.000000        0.215227         3    ;  uncertainty k = 0.050987
        35        37        39        52     9      180.000000        0.244118         4    ;  uncertainty k = 0.052779
        36        35         7        42     9        0.000000       -0.646773         1    ;  uncertainty k = 0.397646
        36        35         7        42     9      180.000000        3.762065         2    ;  uncertainty k = 0.492695
        36        35         7        42     9        0.000000        1.483897         3    ;  uncertainty k = 0.235291
        36        35         7        42     9      180.000000       -0.025919         4    ;  uncertainty k = 0.096422
        36        35        37        38     9        0.000000        6.844605         1    ;  uncertainty k = 0.882211
        36        35        37        38     9      180.000000       19.790839         2    ;  uncertainty k = 0.105250
        36        35        37        38     9        0.000000       -0.220230         3    ;  uncertainty k = 0.161100
        36        35        37        38     9      180.000000       -1.123904         4    ;  uncertainty k = 0.136735
        36        35        37        39     9        0.000000        6.844605         1    ;  uncertainty k = 0.882211
        36        35        37        39     9      180.000000       19.790839         2    ;  uncertainty k = 0.105250
        36        35        37        39     9        0.000000       -0.220230         3    ;  uncertainty k = 0.161100
        36        35        37        39     9      180.000000       -1.123904         4    ;  uncertainty k = 0.136735
        37        35         7        42     9        0.000000       -0.975826         1    ;  uncertainty k = 0.419407
        37        35         7        42     9      180.000000        2.303974         2    ;  uncertainty k = 0.241164
        37        35         7        42     9        0.000000        0.361698         3    ;  uncertainty k = 0.116719
        37        35         7        42     9      180.000000        0.170218         4    ;  uncertainty k = 0.047482
        38        37        39        50     9        0.000000       -0.681994         1    ;  uncertainty k = 0.166187
        38        37        39        50     9      180.000000       -1.033629         2    ;  uncertainty k = 0.139918
        38        37        39        50     9        0.000000        1.312135         3    ;  uncertainty k = 0.057549
        38        37        39        50     9      180.000000        0.172025         4    ;  uncertainty k = 0.029064
        38        37        39        51     9        0.000000       -0.681994         1    ;  uncertainty k = 0.166187
        38        37        39        51     9      180.000000       -1.033629         2    ;  uncertainty k = 0.139918
        38        37        39        51     9        0.000000        1.312135         3    ;  uncertainty k = 0.057549
        38        37        39        51     9      180.000000        0.172025         4    ;  uncertainty k = 0.029064
        38        37        39        52     9        0.000000       -0.681994         1    ;  uncertainty k = 0.166187
        38        37        39        52     9      180.000000       -1.033629         2    ;  uncertainty k = 0.139918
        38        37        39        52     9        0.000000        1.312135         3    ;  uncertainty k = 0.057549
        38        37        39        52     9      180.000000        0.172025         4    ;  uncertainty k = 0.029064
        39        37        38        47     9        0.000000       -0.681994         1    ;  uncertainty k = 0.166187
        39        37        38        47     9      180.000000       -1.033629         2    ;  uncertainty k = 0.139918
        39        37        38        47     9        0.000000        1.312135         3    ;  uncertainty k = 0.057549
        39        37        38        47     9      180.000000        0.172025         4    ;  uncertainty k = 0.029064
        39        37        38        48     9        0.000000       -0.681994         1    ;  uncertainty k = 0.166187
        39        37        38        48     9      180.000000       -1.033629         2    ;  uncertainty k = 0.139918
        39        37        38        48     9        0.000000        1.312135         3    ;  uncertainty k = 0.057549
        39        37        38        48     9      180.000000        0.172025         4    ;  uncertainty k = 0.029064
        39        37        38        49     9        0.000000       -0.681994         1    ;  uncertainty k = 0.166187
        39        37        38        49     9      180.000000       -1.033629         2    ;  uncertainty k = 0.139918
        39        37        38        49     9        0.000000        1.312135         3    ;  uncertainty k = 0.057549
        39        37        38        49     9      180.000000        0.172025         4    ;  uncertainty k = 0.029064
        40         6         5        53     9        0.000000        1.226337         1    ;  uncertainty k = 0.333268
        40         6         5        53     9      180.000000       -0.558738         2    ;  uncertainty k = 0.229595
        40         6         5        53     9        0.000000       -0.052763         3    ;  uncertainty k = 0.147877
        40         6         5        53     9      180.000000        0.050691         4    ;  uncertainty k = 0.043442
        40         6         7        42     9        0.000000        1.275091         1    ;  uncertainty k = 0.308666
        40         6         7        42     9      180.000000       -0.191825         2    ;  uncertainty k = 0.161770
        40         6         7        42     9        0.000000       -0.005639         3    ;  uncertainty k = 0.106020
        40         6         7        42     9      180.000000        0.069270         4    ;  uncertainty k = 0.064132
        41         6         5        53     9        0.000000        1.226337         1    ;  uncertainty k = 0.333268
        41         6         5        53     9      180.000000       -0.558738         2    ;  uncertainty k = 0.229595
        41         6         5        53     9        0.000000       -0.052763         3    ;  uncertainty k = 0.147877
        41         6         5        53     9      180.000000        0.050691         4    ;  uncertainty k = 0.043442
        41         6         7        42     9        0.000000        1.275091         1    ;  uncertainty k = 0.308666
        41         6         7        42     9      180.000000       -0.191825         2    ;  uncertainty k = 0.161770
        41         6         7        42     9        0.000000       -0.005639         3    ;  uncertainty k = 0.106020
        41         6         7        42     9      180.000000        0.069270         4    ;  uncertainty k = 0.064132
        42         7         8        43     9        0.000000        1.375228         1    ;  uncertainty k = 0.292892
        42         7         8        43     9      180.000000       -0.112288         2    ;  uncertainty k = 0.227466
        42         7         8        43     9        0.000000       -0.024960         3    ;  uncertainty k = 0.142904
        42         7         8        43     9      180.000000        0.069958         4    ;  uncertainty k = 0.050452
        42         7         8        44     9        0.000000        1.375228         1    ;  uncertainty k = 0.292892
        42         7         8        44     9      180.000000       -0.112288         2    ;  uncertainty k = 0.227466
        42         7         8        44     9        0.000000       -0.024960         3    ;  uncertainty k = 0.142904
        42         7         8        44     9      180.000000        0.069958         4    ;  uncertainty k = 0.050452
        43         8         9        45     9        0.000000        2.326423         1    ;  uncertainty k = 0.676926
        43         8         9        45     9      180.000000       -0.090332         2    ;  uncertainty k = 0.159897
        43         8         9        45     9        0.000000        0.305999         3    ;  uncertainty k = 0.135712
        43         8         9        45     9      180.000000        0.130735         4    ;  uncertainty k = 0.038641
        43         8         9        46     9        0.000000        2.326423         1    ;  uncertainty k = 0.676926
        43         8         9        46     9      180.000000       -0.090332         2    ;  uncertainty k = 0.159897
        43         8         9        46     9        0.000000        0.305999         3    ;  uncertainty k = 0.135712
        43         8         9        46     9      180.000000        0.130735         4    ;  uncertainty k = 0.038641
        44         8         9        45     9        0.000000        2.326423         1    ;  uncertainty k = 0.676926
        44         8         9        45     9      180.000000       -0.090332         2    ;  uncertainty k = 0.159897
        44         8         9        45     9        0.000000        0.305999         3    ;  uncertainty k = 0.135712
        44         8         9        45     9      180.000000        0.130735         4    ;  uncertainty k = 0.038641
        44         8         9        46     9        0.000000        2.326423         1    ;  uncertainty k = 0.676926
        44         8         9        46     9      180.000000       -0.090332         2    ;  uncertainty k = 0.159897
        44         8         9        46     9        0.000000        0.305999         3    ;  uncertainty k = 0.135712
        44         8         9        46     9      180.000000        0.130735         4    ;  uncertainty k = 0.038641
        54        55        57        58     9        0.000000        0.198047         1    ;  uncertainty k = 0.838743
        54        55        57        58     9      180.000000       13.796891         2    ;  uncertainty k = 0.762058
        54        55        57        58     9        0.000000       -2.527018         3    ;  uncertainty k = 1.140225
        54        55        57        58     9      180.000000        1.746827         4    ;  uncertainty k = 0.323916
        54        55        57        62     9        0.000000       -0.256563         1    ;  uncertainty k = 0.846874
        54        55        57        62     9      180.000000        9.384340         2    ;  uncertainty k = 1.074740
        54        55        57        62     9        0.000000        1.109201         3    ;  uncertainty k = 0.690238
        54        55        57        62     9      180.000000        0.749248         4    ;  uncertainty k = 0.249059
        54        56        58        57     9        0.000000       -0.600702         1    ;  uncertainty k = 0.638278
        54        56        58        57     9      180.000000       13.974351         2    ;  uncertainty k = 1.036260
        54        56        58        57     9        0.000000       -6.552556         3    ;  uncertainty k = 0.730519
        54        56        58        57     9      180.000000        0.614986         4    ;  uncertainty k = 0.952395
        54        56        58        59     9        0.000000       -0.395434         1    ;  uncertainty k = 2.410104
        54        56        58        59     9      180.000000        6.956162         2    ;  uncertainty k = 0.671570
        54        56        58        59     9        0.000000        0.386292         3    ;  uncertainty k = 0.191194
        54        56        58        59     9      180.000000        0.548554         4    ;  uncertainty k = 0.494984
        55        54        56        58     9        0.000000       -0.330292         1    ;  uncertainty k = 0.332304
        55        54        56        58     9      180.000000       16.802017         2    ;  uncertainty k = 0.867931
        55        54        56        58     9        0.000000       -7.529412         3    ;  uncertainty k = 1.325891
        55        54        56        58     9      180.000000        1.337639         4    ;  uncertainty k = 0.689198
        55        57        58        56     9        0.000000        0.467696         1    ;  uncertainty k = 0.842399
        55        57        58        56     9      180.000000       13.127971         2    ;  uncertainty k = 0.817446
        55        57        58        56     9        0.000000       -1.050254         3    ;  uncertainty k = 0.557120
        55        57        58        56     9      180.000000        1.264524         4    ;  uncertainty k = 0.491123
        55        57        58        59     9        0.000000        0.136661         1    ;  uncertainty k = 0.454220
        55        57        58        59     9      180.000000       10.037709         2    ;  uncertainty k = 0.628685
        55        57        58        59     9        0.000000        0.176087         3    ;  uncertainty k = 0.515668
        55        57        58        59     9      180.000000        1.469457         4    ;  uncertainty k = 0.324073
        55        57        62        61     9        0.000000        0.374264         1    ;  uncertainty k = 0.692087
        55        57        62        61     9      180.000000       11.266094         2    ;  uncertainty k = 0.330420
        55        57        62        61     9        0.000000        0.813151         3    ;  uncertainty k = 0.352855
        55        57        62        61     9      180.000000        1.377864         4    ;  uncertainty k = 0.219787
        55        57        62        66     9        0.000000       -0.188533         1    ;  uncertainty k = 0.699316
        55        57        62        66     9      180.000000        6.950173         2    ;  uncertainty k = 0.599203
        55        57        62        66     9        0.000000        1.164472         3    ;  uncertainty k = 0.371098
        55        57        62        66     9      180.000000        1.206700         4    ;  uncertainty k = 0.199904
        56        54        55        57     9        0.000000       -0.112753         1    ;  uncertainty k = 0.650481
        56        54        55        57     9      180.000000       21.254905         2    ;  uncertainty k = 0.289260
        56        54        55        57     9        0.000000       -1.082900         3    ;  uncertainty k = 1.440502
        56        54        55        57     9      180.000000        1.899799         4    ;  uncertainty k = 0.367985
        56        58        57        62     9        0.000000        0.040742         1    ;  uncertainty k = 0.617627
        56        58        57        62     9      180.000000        7.772928         2    ;  uncertainty k = 0.297798
        56        58        57        62     9        0.000000        0.256676         3    ;  uncertainty k = 0.337748
        56        58        57        62     9      180.000000        1.174182         4    ;  uncertainty k = 0.233730
        56        58        59        60     9        0.000000        0.282124         1    ;  uncertainty k = 0.537113
        56        58        59        60     9      180.000000        8.521670         2    ;  uncertainty k = 0.509980
        56        58        59        60     9        0.000000        1.275333         3    ;  uncertainty k = 0.138157
        56        58        59        60     9      180.000000        1.446199         4    ;  uncertainty k = 0.452891
        56        58        59        63     9        0.000000       -0.011039         1    ;  uncertainty k = 0.386078
        56        58        59        63     9      180.000000        5.009289         2    ;  uncertainty k = 0.708840
        56        58        59        63     9        0.000000        0.892863         3    ;  uncertainty k = 0.301135
        56        58        59        63     9      180.000000        0.669802         4    ;  uncertainty k = 0.276386
        57        58        59        60     9        0.000000       -0.071328         1    ;  uncertainty k = 0.398994
        57        58        59        60     9      180.000000       12.582597         2    ;  uncertainty k = 0.470872
        57        58        59        60     9        0.000000       -1.176839         3    ;  uncertainty k = 0.241107
        57        58        59        60     9      180.000000        0.851151         4    ;  uncertainty k = 0.283780
        57        58        59        63     9        0.000000        0.095259         1    ;  uncertainty k = 0.381322
        57        58        59        63     9      180.000000        6.902416         2    ;  uncertainty k = 0.871596
        57        58        59        63     9        0.000000        1.368060         3    ;  uncertainty k = 0.201562
        57        58        59        63     9      180.000000        1.300468         4    ;  uncertainty k = 0.300657
        57        62        61        60     9        0.000000       -0.110529         1    ;  uncertainty k = 0.226605
        57        62        61        60     9      180.000000       11.456739         2    ;  uncertainty k = 0.396608
        57        62        61        60     9        0.000000        0.292803         3    ;  uncertainty k = 0.457686
        57        62        61        60     9      180.000000        1.159931         4    ;  uncertainty k = 0.413585
        57        62        61        65     9        0.000000        0.068302         1    ;  uncertainty k = 0.096653
        57        62        61        65     9      180.000000       12.249441         2    ;  uncertainty k = 0.573516
        57        62        61        65     9        0.000000        1.500485         3    ;  uncertainty k = 0.335368
        57        62        61        65     9      180.000000        1.476793         4    ;  uncertainty k = 0.235802
        58        57        62        61     9        0.000000       -0.001046         1    ;  uncertainty k = 0.590454
        58        57        62        61     9      180.000000       12.230264         2    ;  uncertainty k = 0.143940
        58        57        62        61     9        0.000000       -1.197309         3    ;  uncertainty k = 0.340203
        58        57        62        61     9      180.000000        0.770243         4    ;  uncertainty k = 0.109386
        58        57        62        66     9        0.000000       -0.072446         1    ;  uncertainty k = 0.509426
        58        57        62        66     9      180.000000        6.365194         2    ;  uncertainty k = 0.709454
        58        57        62        66     9        0.000000        1.225482         3    ;  uncertainty k = 0.323567
        58        57        62        66     9      180.000000        1.310653         4    ;  uncertainty k = 0.170117
        58        59        60        61     9        0.000000       -0.063648         1    ;  uncertainty k = 0.158894
        58        59        60        61     9      180.000000       15.703533         2    ;  uncertainty k = 0.450240
        58        59        60        61     9        0.000000       -0.607347         3    ;  uncertainty k = 0.734128
        58        59        60        61     9      180.000000        0.712280         4    ;  uncertainty k = 0.519870
        58        59        60        64     9        0.000000        0.109964         1    ;  uncertainty k = 0.170215
        58        59        60        64     9      180.000000       10.482830         2    ;  uncertainty k = 0.282973
        58        59        60        64     9        0.000000        1.311258         3    ;  uncertainty k = 0.420261
        58        59        60        64     9      180.000000        1.645595         4    ;  uncertainty k = 0.152196
        59        58        57        62     9        0.000000       -0.278451         1    ;  uncertainty k = 0.586510
        59        58        57        62     9      180.000000        8.623174         2    ;  uncertainty k = 0.880563
        59        58        57        62     9        0.000000        0.040777         3    ;  uncertainty k = 0.223127
        59        58        57        62     9      180.000000        1.127797         4    ;  uncertainty k = 0.226945
        59        60        61        62     9        0.000000       -0.011043         1    ;  uncertainty k = 0.225851
        59        60        61        62     9      180.000000        8.989462         2    ;  uncertainty k = 0.522309
        59        60        61        62     9        0.000000       -0.099991         3    ;  uncertainty k = 0.479861
        59        60        61        62     9      180.000000        1.151283         4    ;  uncertainty k = 0.297602
        59        60        61        65     9        0.000000        0.211363         1    ;  uncertainty k = 0.088027
        59        60        61        65     9      180.000000        8.878645         2    ;  uncertainty k = 0.690278
        59        60        61        65     9        0.000000        1.486783         3    ;  uncertainty k = 0.457021
        59        60        61        65     9      180.000000        1.616464         4    ;  uncertainty k = 0.185505
        60        61        62        66     9        0.000000        0.081924         1    ;  uncertainty k = 0.267608
        60        61        62        66     9      180.000000        6.802305         2    ;  uncertainty k = 0.410171
        60        61        62        66     9        0.000000        1.522932         3    ;  uncertainty k = 0.326408
        60        61        62        66     9      180.000000        1.646888         4    ;  uncertainty k = 0.154873
        61        60        59        63     9        0.000000        0.062006         1    ;  uncertainty k = 0.196257
        61        60        59        63     9      180.000000        8.449682         2    ;  uncertainty k = 0.423367
        61        60        59        63     9        0.000000        1.606778         3    ;  uncertainty k = 0.287593
        61        60        59        63     9      180.000000        1.893863         4    ;  uncertainty k = 0.260791
        62        61        60        64     9        0.000000       -0.098464         1    ;  uncertainty k = 0.202003
        62        61        60        64     9      180.000000        5.647852         2    ;  uncertainty k = 0.654841
        62        61        60        64     9        0.000000        1.303458         3    ;  uncertainty k = 0.266512
        62        61        60        64     9      180.000000        1.459077         4    ;  uncertainty k = 0.138231
        63        59        60        64     9        0.000000       -0.071773         1    ;  uncertainty k = 0.223280
        63        59        60        64     9      180.000000        7.824292         2    ;  uncertainty k = 0.390458
        63        59        60        64     9        0.000000       -0.293304         3    ;  uncertainty k = 0.193359
        63        59        60        64     9      180.000000        0.084423         4    ;  uncertainty k = 0.156847
        64        60        61        65     9        0.000000       -0.095900         1    ;  uncertainty k = 0.207220
        64        60        61        65     9      180.000000        7.304505         2    ;  uncertainty k = 0.328098
        64        60        61        65     9        0.000000        0.635402         3    ;  uncertainty k = 0.311692
        64        60        61        65     9      180.000000        0.902289         4    ;  uncertainty k = 0.139812
        65        61        62        66     9        0.000000       -0.221615         1    ;  uncertainty k = 0.420299
        65        61        62        66     9      180.000000        8.189533         2    ;  uncertainty k = 0.365967
        65        61        62        66     9        0.000000        0.729077         3    ;  uncertainty k = 0.266237
        65        61        62        66     9      180.000000        1.044292         4    ;  uncertainty k = 0.239090

[ dihedrals ] ; impropers
;       ai        aj        ak        al funct           phase               k        pn
         1         2         4        54     4      180.000000       49.238627         2    ;  uncertainty k = 0.006768
         1         4        54         2     4      180.000000       49.238627         2    ;  uncertainty k = 0.006768
         1        54         2         4     4      180.000000       49.238627         2    ;  uncertainty k = 0.006768
        11        10        12        13     4      180.000000       49.476644         2    ;  uncertainty k = 0.014914
        11        12        13        10     4      180.000000       49.476644         2    ;  uncertainty k = 0.014914
        11        13        10        12     4      180.000000       49.476644         2    ;  uncertainty k = 0.014914
        12        11        14        15     4      180.000000        4.762177         2    ;  uncertainty k = 0.485670
        12        14        15        11     4      180.000000        4.762177         2    ;  uncertainty k = 0.485670
        12        15        11        14     4      180.000000        4.762177         2    ;  uncertainty k = 0.485670
        19        14        20        24     4      180.000000       10.302524         2    ;  uncertainty k = 0.235813
        19        20        24        14     4      180.000000       10.302524         2    ;  uncertainty k = 0.235813
        19        24        14        20     4      180.000000       10.302524         2    ;  uncertainty k = 0.235813
        20        15        19        21     4      180.000000        2.894551         2    ;  uncertainty k = 0.672593
        20        19        21        15     4      180.000000        2.894551         2    ;  uncertainty k = 0.672593
        20        21        15        19     4      180.000000        2.894551         2    ;  uncertainty k = 0.672593
        35         7        36        37     4      180.000000       51.316640         2    ;  uncertainty k = 0.028239
        35        36        37         7     4      180.000000       51.316640         2    ;  uncertainty k = 0.028239
        35        37         7        36     4      180.000000       51.316640         2    ;  uncertainty k = 0.028239
        54         1        55        56     4      180.000000        7.230238         2    ;  uncertainty k = 0.069731
        54        55        56         1     4      180.000000        7.230238         2    ;  uncertainty k = 0.069731
        54        56         1        55     4      180.000000        7.230238         2    ;  uncertainty k = 0.069731
        57        55        58        62     4      180.000000        4.192872         2    ;  uncertainty k = 0.532579
        57        58        62        55     4      180.000000        4.192872         2    ;  uncertainty k = 0.532579
        57        62        55        58     4      180.000000        4.192872         2    ;  uncertainty k = 0.532579
        58        56        57        59     4      180.000000        0.424838         2    ;  uncertainty k = 0.949967
        58        57        59        56     4      180.000000        0.424838         2    ;  uncertainty k = 0.949967
        58        59        56        57     4      180.000000        0.424838         2    ;  uncertainty k = 0.949967
        59        58        60        63     4      180.000000        4.575009         2    ;  uncertainty k = 0.133634
        59        60        63        58     4      180.000000        4.575009         2    ;  uncertainty k = 0.133634
        59        63        58        60     4      180.000000        4.575009         2    ;  uncertainty k = 0.133634
        60        59        61        64     4      180.000000        3.367950         2    ;  uncertainty k = 0.193182
        60        61        64        59     4      180.000000        3.367950         2    ;  uncertainty k = 0.193182
        60        64        59        61     4      180.000000        3.367950         2    ;  uncertainty k = 0.193182
        61        60        62        65     4      180.000000       13.074020         2    ;  uncertainty k = 0.019035
        61        62        65        60     4      180.000000       13.074020         2    ;  uncertainty k = 0.019035
        61        65        60        62     4      180.000000       13.074020         2    ;  uncertainty k = 0.019035
        62        57        61        66     4      180.000000        3.183655         2    ;  uncertainty k = 0.316481
        62        61        66        57     4      180.000000        3.183655         2    ;  uncertainty k = 0.316481
        62        66        57        61     4      180.000000        3.183655         2    ;  uncertainty k = 0.316481

[ pairs ]
;       ai        aj funct
         1         5     1
         1         9     1
         1        17     1
         1        57     1
         1        58     1
         2         6     1
         2         8     1
         2        10     1
         2        45     1
         2        46     1
         2        53     1
         2        55     1
         2        56     1
         3         4     1
         3         7     1
         3        11     1
         3        18     1
         3        40     1
         3        41     1
         3        43     1
         3        44     1
         3        54     1
         4        16     1
         4        55     1
         4        56     1
         5         8     1
         5        12     1
         5        13     1
         5        16     1
         5        35     1
         5        42     1
         5        45     1
         5        46     1
         6         9     1
         6        11     1
         6        17     1
         6        18     1
         6        36     1
         6        37     1
         6        43     1
         6        44     1
         7        10     1
         7        38     1
         7        39     1
         7        45     1
         7        46     1
         7        53     1
         8        17     1
         8        36     1
         8        37     1
         8        40     1
         8        41     1
         9        10     1
         9        16     1
         9        35     1
         9        42     1
         9        53     1
        10        14     1
        10        15     1
        10        17     1
        10        40     1
        10        41     1
        11        19     1
        11        20     1
        11        53     1
        12        18     1
        12        21     1
        12        24     1
        13        14     1
        13        15     1
        13        18     1
        14        21     1
        14        23     1
        14        30     1
        14        31     1
        15        22     1
        15        24     1
        15        26     1
        15        27     1
        16        17     1
        16        54     1
        17        45     1
        17        46     1
        17        53     1
        18        53     1
        19        22     1
        19        26     1
        19        27     1
        19        28     1
        19        29     1
        20        23     1
        20        25     1
        20        30     1
        20        31     1
        21        24     1
        21        28     1
        21        29     1
        21        32     1
        21        33     1
        21        34     1
        22        30     1
        22        31     1
        23        26     1
        23        27     1
        23        32     1
        23        33     1
        23        34     1
        24        25     1
        25        26     1
        25        27     1
        25        28     1
        25        29     1
        28        30     1
        28        31     1
        29        30     1
        29        31     1
        35        40     1
        35        41     1
        35        43     1
        35        44     1
        35        47     1
        35        48     1
        35        49     1
        35        50     1
        35        51     1
        35        52     1
        36        38     1
        36        39     1
        36        42     1
        37        42     1
        38        50     1
        38        51     1
        38        52     1
        39        47     1
        39        48     1
        39        49     1
        40        42     1
        40        53     1
        41        42     1
        41        53     1
        42        43     1
        42        44     1
        43        45     1
        43        46     1
        44        45     1
        44        46     1
        54        59     1
        54        62     1
        55        59     1
        55        61     1
        55        66     1
        56        60     1
        56        62     1
        56        63     1
        57        60     1
        57        63     1
        57        65     1
        58        61     1
        58        64     1
        58        66     1
        59        62     1
        59        65     1
        60        66     1
        61        63     1
        62        64     1
        63        64     1
        64        65     1
        65        66     1
