; ITP file created by ByteFF-joint-25, 2025-07-14 11:37:40.885555

[ atomtypes ]
;name           bonded.type        at.num        mass        charge   ptype           sigma         epsilon
 c0bf                                   6      0.0000       0.00000       A     3.31529e-01     4.12152e-01    ;  uncertainty sigma = 0.000018, epsilon = 0.000908
 n1bf                                   7      0.0000       0.00000       A     3.27007e-01     4.88982e-01    ;  uncertainty sigma = 0.000035, epsilon = 0.002581
 c2bf                                   6      0.0000       0.00000       A     3.39789e-01     4.50801e-01    ;  uncertainty sigma = 0.000020, epsilon = 0.000920
 o3bf                                   8      0.0000       0.00000       A     3.04838e-01     6.12504e-01    ;  uncertainty sigma = 0.000028, epsilon = 0.001012
 c4bf                                   6      0.0000       0.00000       A     3.39779e-01     4.50691e-01    ;  uncertainty sigma = 0.000021, epsilon = 0.001071
 c5bf                                   6      0.0000       0.00000       A     3.39785e-01     4.51177e-01    ;  uncertainty sigma = 0.000013, epsilon = 0.000568
 c6bf                                   6      0.0000       0.00000       A     3.39788e-01     4.50813e-01    ;  uncertainty sigma = 0.000005, epsilon = 0.001015
 c7bf                                   6      0.0000       0.00000       A     3.39784e-01     4.51089e-01    ;  uncertainty sigma = 0.000005, epsilon = 0.000646
 c8bf                                   6      0.0000       0.00000       A     3.39763e-01     4.50989e-01    ;  uncertainty sigma = 0.000009, epsilon = 0.000663
 n9bf                                   7      0.0000       0.00000       A     3.27037e-01     4.89849e-01    ;  uncertainty sigma = 0.000029, epsilon = 0.003194
 c10bf                                  6      0.0000       0.00000       A     3.31529e-01     4.12690e-01    ;  uncertainty sigma = 0.000018, epsilon = 0.001128
 c11bf                                  6      0.0000       0.00000       A     3.31525e-01     4.13652e-01    ;  uncertainty sigma = 0.000013, epsilon = 0.001225
 o12bf                                  8      0.0000       0.00000       A     3.04890e-01     6.12219e-01    ;  uncertainty sigma = 0.000024, epsilon = 0.000874
 n13bf                                  7      0.0000       0.00000       A     3.38354e-01     3.93161e-01    ;  uncertainty sigma = 0.000020, epsilon = 0.001245
 s14bf                                 16      0.0000       0.00000       A     3.53288e-01     1.18179e+00    ;  uncertainty sigma = 0.000032, epsilon = 0.002346
 h15bf                                  1      0.0000       0.00000       A     1.10667e-01     4.16549e-02    ;  uncertainty sigma = 0.000108, epsilon = 0.000806
 h16bf                                  1      0.0000       0.00000       A     2.42171e-01     8.67682e-02    ;  uncertainty sigma = 0.000031, epsilon = 0.001303
 h17bf                                  1      0.0000       0.00000       A     1.10666e-01     4.15404e-02    ;  uncertainty sigma = 0.000113, epsilon = 0.000907
 c18bf                                  6      0.0000       0.00000       A     3.31531e-01     4.13284e-01    ;  uncertainty sigma = 0.000022, epsilon = 0.000692
 c19bf                                  6      0.0000       0.00000       A     3.31510e-01     4.13232e-01    ;  uncertainty sigma = 0.000021, epsilon = 0.000971
 c20bf                                  6      0.0000       0.00000       A     3.39772e-01     4.51291e-01    ;  uncertainty sigma = 0.000007, epsilon = 0.001369
 n21bf                                  7      0.0000       0.00000       A     3.36491e-01     3.58344e-01    ;  uncertainty sigma = 0.000019, epsilon = 0.001758
 c22bf                                  6      0.0000       0.00000       A     3.39770e-01     4.51225e-01    ;  uncertainty sigma = 0.000009, epsilon = 0.000671
 c23bf                                  6      0.0000       0.00000       A     3.39762e-01     4.51164e-01    ;  uncertainty sigma = 0.000008, epsilon = 0.001424
 c24bf                                  6      0.0000       0.00000       A     3.39770e-01     4.51318e-01    ;  uncertainty sigma = 0.000003, epsilon = 0.000740
 h25bf                                  1      0.0000       0.00000       A     2.42250e-01     8.62902e-02    ;  uncertainty sigma = 0.000037, epsilon = 0.000964
 h26bf                                  1      0.0000       0.00000       A     2.42250e-01     8.62902e-02    ;  uncertainty sigma = 0.000037, epsilon = 0.000964
 h27bf                                  1      0.0000       0.00000       A     2.42218e-01     8.69005e-02    ;  uncertainty sigma = 0.000021, epsilon = 0.000739
 h28bf                                  1      0.0000       0.00000       A     2.42218e-01     8.69005e-02    ;  uncertainty sigma = 0.000021, epsilon = 0.000739
 h29bf                                  1      0.0000       0.00000       A     2.60015e-01     8.68230e-02    ;  uncertainty sigma = 0.000020, epsilon = 0.000739
 h30bf                                  1      0.0000       0.00000       A     2.60015e-01     8.68230e-02    ;  uncertainty sigma = 0.000020, epsilon = 0.000739
 h31bf                                  1      0.0000       0.00000       A     2.42198e-01     8.68693e-02    ;  uncertainty sigma = 0.000014, epsilon = 0.000543
 h32bf                                  1      0.0000       0.00000       A     2.42198e-01     8.68693e-02    ;  uncertainty sigma = 0.000014, epsilon = 0.000543
 h33bf                                  1      0.0000       0.00000       A     2.42198e-01     8.68693e-02    ;  uncertainty sigma = 0.000014, epsilon = 0.000543
 c34bf                                  6      0.0000       0.00000       A     3.31545e-01     4.13066e-01    ;  uncertainty sigma = 0.000011, epsilon = 0.001034
 o35bf                                  8      0.0000       0.00000       A     3.04819e-01     6.12467e-01    ;  uncertainty sigma = 0.000013, epsilon = 0.000996
 n36bf                                  7      0.0000       0.00000       A     3.18136e-01     6.84509e-01    ;  uncertainty sigma = 0.000019, epsilon = 0.001339
 c37bf                                  6      0.0000       0.00000       A     3.39777e-01     4.50876e-01    ;  uncertainty sigma = 0.000006, epsilon = 0.000504
 c38bf                                  6      0.0000       0.00000       A     3.39777e-01     4.50876e-01    ;  uncertainty sigma = 0.000006, epsilon = 0.000504
 h39bf                                  1      0.0000       0.00000       A     2.60016e-01     8.65219e-02    ;  uncertainty sigma = 0.000021, epsilon = 0.000613
 h40bf                                  1      0.0000       0.00000       A     2.60016e-01     8.65219e-02    ;  uncertainty sigma = 0.000021, epsilon = 0.000613
 h41bf                                  1      0.0000       0.00000       A     2.60030e-01     8.70270e-02    ;  uncertainty sigma = 0.000011, epsilon = 0.000538
 h42bf                                  1      0.0000       0.00000       A     2.60020e-01     8.66352e-02    ;  uncertainty sigma = 0.000016, epsilon = 0.000625
 h43bf                                  1      0.0000       0.00000       A     2.60020e-01     8.66352e-02    ;  uncertainty sigma = 0.000016, epsilon = 0.000625
 h44bf                                  1      0.0000       0.00000       A     2.60024e-01     8.67210e-02    ;  uncertainty sigma = 0.000008, epsilon = 0.000629
 h45bf                                  1      0.0000       0.00000       A     2.60024e-01     8.67210e-02    ;  uncertainty sigma = 0.000008, epsilon = 0.000629
 h46bf                                  1      0.0000       0.00000       A     2.42196e-01     8.67627e-02    ;  uncertainty sigma = 0.000011, epsilon = 0.000510
 h47bf                                  1      0.0000       0.00000       A     2.42196e-01     8.67627e-02    ;  uncertainty sigma = 0.000011, epsilon = 0.000510
 h48bf                                  1      0.0000       0.00000       A     2.42196e-01     8.67627e-02    ;  uncertainty sigma = 0.000011, epsilon = 0.000510
 h49bf                                  1      0.0000       0.00000       A     2.42196e-01     8.67627e-02    ;  uncertainty sigma = 0.000011, epsilon = 0.000510
 h50bf                                  1      0.0000       0.00000       A     2.42196e-01     8.67627e-02    ;  uncertainty sigma = 0.000011, epsilon = 0.000510
 h51bf                                  1      0.0000       0.00000       A     2.42196e-01     8.67627e-02    ;  uncertainty sigma = 0.000011, epsilon = 0.000510
 h52bf                                  1      0.0000       0.00000       A     2.42144e-01     8.68216e-02    ;  uncertainty sigma = 0.000035, epsilon = 0.001353
 c53bf                                  6      0.0000       0.00000       A     3.31511e-01     4.13933e-01    ;  uncertainty sigma = 0.000010, epsilon = 0.001069
 n54bf                                  7      0.0000       0.00000       A     3.38422e-01     3.92446e-01    ;  uncertainty sigma = 0.000028, epsilon = 0.001442
 n55bf                                  7      0.0000       0.00000       A     3.20632e-01     8.54500e-01    ;  uncertainty sigma = 0.000029, epsilon = 0.001369
 h56bf                                  1      0.0000       0.00000       A     1.10672e-01     4.14879e-02    ;  uncertainty sigma = 0.000078, epsilon = 0.000850
 c57bf                                  6      0.0000       0.00000       A     3.31527e-01     4.12818e-01    ;  uncertainty sigma = 0.000006, epsilon = 0.000833
 c58bf                                  6      0.0000       0.00000       A     3.31530e-01     4.13219e-01    ;  uncertainty sigma = 0.000006, epsilon = 0.000724
 c59bf                                  6      0.0000       0.00000       A     3.31532e-01     4.13155e-01    ;  uncertainty sigma = 0.000008, epsilon = 0.000682
 c60bf                                  6      0.0000       0.00000       A     3.31526e-01     4.13486e-01    ;  uncertainty sigma = 0.000007, epsilon = 0.000515
 c61bf                                  6      0.0000       0.00000       A     3.31526e-01     4.13006e-01    ;  uncertainty sigma = 0.000003, epsilon = 0.000799
 c62bf                                  6      0.0000       0.00000       A     3.31519e-01     4.13188e-01    ;  uncertainty sigma = 0.000012, epsilon = 0.000797
 h63bf                                  1      0.0000       0.00000       A     2.62555e-01     6.69297e-02    ;  uncertainty sigma = 0.000011, epsilon = 0.000563
 h64bf                                  1      0.0000       0.00000       A     2.62553e-01     6.70582e-02    ;  uncertainty sigma = 0.000010, epsilon = 0.000690
 cl65bf                                17      0.0000       0.00000       A     3.46614e-01     1.10425e+00    ;  uncertainty sigma = 0.000017, epsilon = 0.000933
 h66bf                                  1      0.0000       0.00000       A     2.62547e-01     6.70044e-02    ;  uncertainty sigma = 0.000013, epsilon = 0.000710

[ moleculetype ]
;name             nrexcl
 MOL                   3

[ atoms ]
;       nr            type      resi   res      atom      cgnr      charge          mass ; qtot
         1            c0bf         1   UNL        c0         1     0.61284       12.0110 ; qtot    0.613
         2            n1bf         1   UNL        n1         2    -0.54967       14.0070 ; qtot    0.063
         3            c2bf         1   UNL        c2         3     0.10199       12.0110 ; qtot    0.165
         4            o3bf         1   UNL        o3         4    -0.59425       15.9990 ; qtot   -0.429
         5            c4bf         1   UNL        c4         5     0.10496       12.0110 ; qtot   -0.324
         6            c5bf         1   UNL        c5         6    -0.07514       12.0110 ; qtot   -0.399
         7            c6bf         1   UNL        c6         7    -0.13250       12.0110 ; qtot   -0.532
         8            c7bf         1   UNL        c7         8    -0.06578       12.0110 ; qtot   -0.598
         9            c8bf         1   UNL        c8         9    -0.08715       12.0110 ; qtot   -0.685
        10            n9bf         1   UNL        n9        10    -0.55643       14.0070 ; qtot   -1.241
        11           c10bf         1   UNL       c10        11     0.59414       12.0110 ; qtot   -0.647
        12           c11bf         1   UNL       c11        12     0.37509       12.0110 ; qtot   -0.272
        13           o12bf         1   UNL       o12        13    -0.57698       15.9990 ; qtot   -0.849
        14           n13bf         1   UNL       n13        14    -0.60853       14.0070 ; qtot   -1.457
        15           s14bf         1   UNL       s14        15    -0.11954       32.0670 ; qtot   -1.577
        16           h15bf         1   UNL       h15        16     0.33909        1.0080 ; qtot   -1.238
        17           h16bf         1   UNL       h16        17     0.07773        1.0080 ; qtot   -1.160
        18           h17bf         1   UNL       h17        18     0.33735        1.0080 ; qtot   -0.823
        19           c18bf         1   UNL       c18        19     0.34886       12.0110 ; qtot   -0.474
        20           c19bf         1   UNL       c19        20    -0.15290       12.0110 ; qtot   -0.627
        21           c20bf         1   UNL       c20        21     0.24342       12.0110 ; qtot   -0.383
        22           n21bf         1   UNL       n21        22    -0.71265       14.0070 ; qtot   -1.096
        23           c22bf         1   UNL       c22        23     0.15896       12.0110 ; qtot   -0.937
        24           c23bf         1   UNL       c23        24    -0.11292       12.0110 ; qtot   -1.050
        25           c24bf         1   UNL       c24        25     0.14692       12.0110 ; qtot   -0.903
        26           h25bf         1   UNL       h25        26     0.05218        1.0080 ; qtot   -0.851
        27           h26bf         1   UNL       h26        27     0.05218        1.0080 ; qtot   -0.799
        28           h27bf         1   UNL       h27        28     0.04542        1.0080 ; qtot   -0.753
        29           h28bf         1   UNL       h28        29     0.04542        1.0080 ; qtot   -0.708
        30           h29bf         1   UNL       h29        30     0.06419        1.0080 ; qtot   -0.644
        31           h30bf         1   UNL       h30        31     0.06419        1.0080 ; qtot   -0.580
        32           h31bf         1   UNL       h31        32     0.03530        1.0080 ; qtot   -0.544
        33           h32bf         1   UNL       h32        33     0.03530        1.0080 ; qtot   -0.509
        34           h33bf         1   UNL       h33        34     0.03530        1.0080 ; qtot   -0.474
        35           c34bf         1   UNL       c34        35     0.67193       12.0110 ; qtot    0.198
        36           o35bf         1   UNL       o35        36    -0.60797       15.9990 ; qtot   -0.410
        37           n36bf         1   UNL       n36        37    -0.49029       14.0070 ; qtot   -0.900
        38           c37bf         1   UNL       c37        38     0.08466       12.0110 ; qtot   -0.815
        39           c38bf         1   UNL       c38        39     0.08466       12.0110 ; qtot   -0.731
        40           h39bf         1   UNL       h39        40     0.06150        1.0080 ; qtot   -0.669
        41           h40bf         1   UNL       h40        41     0.06150        1.0080 ; qtot   -0.608
        42           h41bf         1   UNL       h41        42     0.06422        1.0080 ; qtot   -0.543
        43           h42bf         1   UNL       h42        43     0.05208        1.0080 ; qtot   -0.491
        44           h43bf         1   UNL       h43        44     0.05208        1.0080 ; qtot   -0.439
        45           h44bf         1   UNL       h44        45     0.05526        1.0080 ; qtot   -0.384
        46           h45bf         1   UNL       h45        46     0.05526        1.0080 ; qtot   -0.329
        47           h46bf         1   UNL       h46        47     0.04383        1.0080 ; qtot   -0.285
        48           h47bf         1   UNL       h47        48     0.04383        1.0080 ; qtot   -0.241
        49           h48bf         1   UNL       h48        49     0.04383        1.0080 ; qtot   -0.197
        50           h49bf         1   UNL       h49        50     0.04383        1.0080 ; qtot   -0.153
        51           h50bf         1   UNL       h50        51     0.04383        1.0080 ; qtot   -0.110
        52           h51bf         1   UNL       h51        52     0.04383        1.0080 ; qtot   -0.066
        53           h52bf         1   UNL       h52        53     0.07881        1.0080 ; qtot    0.013
        54           c53bf         1   UNL       c53        54     0.35657       12.0110 ; qtot    0.370
        55           n54bf         1   UNL       n54        55    -0.54924       14.0070 ; qtot   -0.180
        56           n55bf         1   UNL       n55        56    -0.23901       14.0070 ; qtot   -0.419
        57           h56bf         1   UNL       h56        57     0.33287        1.0080 ; qtot   -0.086
        58           c57bf         1   UNL       c57        58     0.06642       12.0110 ; qtot   -0.019
        59           c58bf         1   UNL       c58        59    -0.05699       12.0110 ; qtot   -0.076
        60           c59bf         1   UNL       c59        60    -0.12052       12.0110 ; qtot   -0.197
        61           c60bf         1   UNL       c60        61    -0.10363       12.0110 ; qtot   -0.300
        62           c61bf         1   UNL       c61        62     0.01344       12.0110 ; qtot   -0.287
        63           c62bf         1   UNL       c62        63    -0.04651       12.0110 ; qtot   -0.334
        64           h63bf         1   UNL       h63        64     0.14266        1.0080 ; qtot   -0.191
        65           h64bf         1   UNL       h64        65     0.15209        1.0080 ; qtot   -0.039
        66          cl65bf         1   UNL      cl65        66    -0.12598       35.4530 ; qtot   -0.165
        67           h66bf         1   UNL       h66        67     0.16476        1.0080 ; qtot   -0.000

[ bonds ]
;       ai        aj funct               r               k
         1         2     1        0.136070   298006.881152    ;  uncertainty r = 0.000181, k = 22.081858
         1         4     1        0.123788   693538.297559    ;  uncertainty r = 0.000097, k = 14.709013
         1        54     1        0.147907   271247.897705    ;  uncertainty r = 0.000246, k = 20.429440
         2         3     1        0.145796   237768.313184    ;  uncertainty r = 0.000108, k = 15.441873
         2        16     1        0.101660   409771.061816    ;  uncertainty r = 0.000091, k = 2.964788
         3         5     1        0.154141   193038.521118    ;  uncertainty r = 0.000239, k = 7.079473
         3         9     1        0.153518   200046.618970    ;  uncertainty r = 0.000084, k = 7.041844
         3        17     1        0.109361   306054.237207    ;  uncertainty r = 0.000051, k = 3.126447
         5         6     1        0.153459   198491.779297    ;  uncertainty r = 0.000127, k = 5.264538
         5        10     1        0.145729   238727.461475    ;  uncertainty r = 0.000067, k = 15.790014
         5        53     1        0.109360   306487.525342    ;  uncertainty r = 0.000054, k = 3.376958
         6         7     1        0.153721   199006.850024    ;  uncertainty r = 0.000168, k = 6.848027
         6        40     1        0.109526   310433.851465    ;  uncertainty r = 0.000043, k = 0.875064
         6        41     1        0.109526   310433.851465    ;  uncertainty r = 0.000043, k = 0.875064
         7         8     1        0.153975   202217.337109    ;  uncertainty r = 0.000087, k = 2.573046
         7        35     1        0.153156   206143.680444    ;  uncertainty r = 0.000070, k = 12.443492
         7        42     1        0.109633   309151.735352    ;  uncertainty r = 0.000051, k = 6.503762
         8         9     1        0.153315   207912.240186    ;  uncertainty r = 0.000063, k = 5.403351
         8        43     1        0.109602   308125.501074    ;  uncertainty r = 0.000021, k = 1.819146
         8        44     1        0.109602   308125.501074    ;  uncertainty r = 0.000021, k = 1.819146
         9        45     1        0.109620   309910.953613    ;  uncertainty r = 0.000024, k = 1.009960
         9        46     1        0.109620   309910.953613    ;  uncertainty r = 0.000024, k = 1.009960
        10        11     1        0.136254   291452.475586    ;  uncertainty r = 0.000129, k = 17.867731
        10        18     1        0.101616   410581.507520    ;  uncertainty r = 0.000093, k = 3.750123
        11        12     1        0.147883   259563.418848    ;  uncertainty r = 0.000125, k = 27.680344
        11        13     1        0.123538   703630.001367    ;  uncertainty r = 0.000115, k = 12.098945
        12        14     1        0.130310   434161.095312    ;  uncertainty r = 0.000085, k = 15.053236
        12        15     1        0.175563   155788.944214    ;  uncertainty r = 0.000188, k = 10.470577
        14        19     1        0.137602   299978.345996    ;  uncertainty r = 0.000211, k = 8.739575
        15        20     1        0.173396   184345.625244    ;  uncertainty r = 0.000110, k = 8.530767
        19        20     1        0.137286   397473.794482    ;  uncertainty r = 0.000034, k = 9.608965
        19        24     1        0.149948   244144.622949    ;  uncertainty r = 0.000108, k = 7.193396
        20        21     1        0.150719   237383.826465    ;  uncertainty r = 0.000089, k = 11.691948
        21        22     1        0.146397   258698.068359    ;  uncertainty r = 0.000045, k = 12.802743
        21        26     1        0.110180   303656.992139    ;  uncertainty r = 0.000048, k = 3.959665
        21        27     1        0.110180   303656.992139    ;  uncertainty r = 0.000048, k = 3.959665
        22        23     1        0.146774   246527.975830    ;  uncertainty r = 0.000088, k = 8.191406
        22        25     1        0.145874   240551.449512    ;  uncertainty r = 0.000055, k = 4.989744
        23        24     1        0.153862   211171.503149    ;  uncertainty r = 0.000061, k = 10.297044
        23        28     1        0.109933   305388.127246    ;  uncertainty r = 0.000023, k = 3.768152
        23        29     1        0.109933   305388.127246    ;  uncertainty r = 0.000023, k = 3.768152
        24        30     1        0.109729   310887.467139    ;  uncertainty r = 0.000009, k = 2.383701
        24        31     1        0.109729   310887.467139    ;  uncertainty r = 0.000009, k = 2.383701
        25        32     1        0.109858   306972.960254    ;  uncertainty r = 0.000009, k = 1.032628
        25        33     1        0.109858   306972.960254    ;  uncertainty r = 0.000009, k = 1.032628
        25        34     1        0.109858   306972.960254    ;  uncertainty r = 0.000009, k = 1.032628
        35        36     1        0.123614   736987.492969    ;  uncertainty r = 0.000035, k = 11.451192
        35        37     1        0.137582   365085.461719    ;  uncertainty r = 0.000056, k = 20.353979
        37        38     1        0.145904   250764.556738    ;  uncertainty r = 0.000013, k = 6.211512
        37        39     1        0.145904   250764.556738    ;  uncertainty r = 0.000013, k = 6.211512
        38        47     1        0.109437   311080.731982    ;  uncertainty r = 0.000014, k = 1.257584
        38        48     1        0.109437   311080.731982    ;  uncertainty r = 0.000014, k = 1.257584
        38        49     1        0.109437   311080.731982    ;  uncertainty r = 0.000014, k = 1.257584
        39        50     1        0.109437   311080.731982    ;  uncertainty r = 0.000014, k = 1.257584
        39        51     1        0.109437   311080.731982    ;  uncertainty r = 0.000014, k = 1.257584
        39        52     1        0.109437   311080.731982    ;  uncertainty r = 0.000014, k = 1.257584
        54        55     1        0.131919   436076.582813    ;  uncertainty r = 0.000087, k = 7.481010
        54        56     1        0.138018   297895.130762    ;  uncertainty r = 0.000148, k = 23.146953
        55        58     1        0.138856   308665.559863    ;  uncertainty r = 0.000101, k = 14.970797
        56        57     1        0.101496   418402.196191    ;  uncertainty r = 0.000072, k = 5.326129
        56        59     1        0.138420   366299.189453    ;  uncertainty r = 0.000076, k = 9.028107
        58        59     1        0.142249   393523.535645    ;  uncertainty r = 0.000041, k = 5.395024
        58        63     1        0.140285   365381.947559    ;  uncertainty r = 0.000048, k = 3.299719
        59        60     1        0.139764   364622.525000    ;  uncertainty r = 0.000037, k = 3.526226
        60        61     1        0.139234   376229.600879    ;  uncertainty r = 0.000069, k = 2.356168
        60        64     1        0.108806   337134.635840    ;  uncertainty r = 0.000016, k = 1.246496
        61        62     1        0.140991   339618.707080    ;  uncertainty r = 0.000019, k = 1.790461
        61        65     1        0.108644   335831.783594    ;  uncertainty r = 0.000018, k = 1.597660
        62        63     1        0.139002   360497.004980    ;  uncertainty r = 0.000036, k = 3.029571
        62        66     1        0.176180   194324.263501    ;  uncertainty r = 0.000059, k = 3.915212
        63        67     1        0.108687   336221.888477    ;  uncertainty r = 0.000024, k = 1.728616

[ angles ]
;       ai        aj        ak funct           theta             cth
         1         2         3     1      116.271133      441.626863    ;  uncertainty theta = 0.005392, k = 0.201034
         1         2        16     1      116.080284      356.764463    ;  uncertainty theta = 0.005460, k = 0.140297
         1        54        55     1      124.742432      349.460594    ;  uncertainty theta = 0.003514, k = 0.184190
         1        54        56     1      119.442848      330.871653    ;  uncertainty theta = 0.005024, k = 0.327215
         2         1         4     1      125.191345      812.161478    ;  uncertainty theta = 0.003589, k = 0.088789
         2         1        54     1      113.316483      438.706950    ;  uncertainty theta = 0.006621, k = 0.111491
         2         3         5     1      108.998573      581.227418    ;  uncertainty theta = 0.004596, k = 0.153417
         2         3         9     1      110.596130      634.756009    ;  uncertainty theta = 0.002085, k = 0.084946
         2         3        17     1      105.105003      445.040153    ;  uncertainty theta = 0.004720, k = 0.169526
         3         2        16     1      112.717384      314.475808    ;  uncertainty theta = 0.001405, k = 0.337159
         3         5         6     1      109.651917      543.838664    ;  uncertainty theta = 0.003159, k = 0.180350
         3         5        10     1      109.138046      584.318430    ;  uncertainty theta = 0.004676, k = 0.176129
         3         5        53     1      107.702713      383.978339    ;  uncertainty theta = 0.001776, k = 0.084325
         3         9         8     1      109.767746      550.413448    ;  uncertainty theta = 0.003328, k = 0.120386
         3         9        45     1      107.467262      382.669658    ;  uncertainty theta = 0.000844, k = 0.034934
         3         9        46     1      107.467262      382.669658    ;  uncertainty theta = 0.000844, k = 0.034934
         4         1        54     1      120.955544      477.972458    ;  uncertainty theta = 0.005231, k = 0.274090
         5         3         9     1      109.389626      551.694837    ;  uncertainty theta = 0.001303, k = 0.237238
         5         3        17     1      107.484314      381.794022    ;  uncertainty theta = 0.002444, k = 0.089592
         5         6         7     1      110.155777      537.181906    ;  uncertainty theta = 0.003354, k = 0.119115
         5         6        40     1      107.460854      385.063155    ;  uncertainty theta = 0.000653, k = 0.058631
         5         6        41     1      107.460854      385.063155    ;  uncertainty theta = 0.000653, k = 0.058631
         5        10        11     1      116.256470      438.591490    ;  uncertainty theta = 0.006636, k = 0.182671
         5        10        18     1      112.697777      315.756941    ;  uncertainty theta = 0.001526, k = 0.296885
         6         5        10     1      110.224083      630.160670    ;  uncertainty theta = 0.002121, k = 0.087819
         6         5        53     1      108.606544      408.575938    ;  uncertainty theta = 0.001745, k = 0.034990
         6         7         8     1      109.900391      583.567575    ;  uncertainty theta = 0.002330, k = 0.083135
         6         7        35     1      108.569168      489.144113    ;  uncertainty theta = 0.003757, k = 0.073146
         6         7        42     1      107.332260      401.082169    ;  uncertainty theta = 0.002516, k = 0.077903
         7         6        40     1      108.676857      396.198101    ;  uncertainty theta = 0.000795, k = 0.026396
         7         6        41     1      108.676857      396.198101    ;  uncertainty theta = 0.000795, k = 0.026396
         7         8         9     1      109.786987      580.835360    ;  uncertainty theta = 0.001913, k = 0.141340
         7         8        43     1      108.292625      386.614311    ;  uncertainty theta = 0.000735, k = 0.019139
         7         8        44     1      108.292625      386.614311    ;  uncertainty theta = 0.000735, k = 0.019139
         7        35        36     1      123.648819      547.647652    ;  uncertainty theta = 0.003749, k = 0.250532
         7        35        37     1      114.135170      399.306701    ;  uncertainty theta = 0.002339, k = 0.216014
         8         7        35     1      108.943726      496.415422    ;  uncertainty theta = 0.001979, k = 0.055108
         8         7        42     1      107.694107      403.879791    ;  uncertainty theta = 0.001685, k = 0.082263
         8         9        45     1      108.763489      400.577939    ;  uncertainty theta = 0.001541, k = 0.036918
         8         9        46     1      108.763489      400.577939    ;  uncertainty theta = 0.001541, k = 0.036918
         9         3        17     1      108.924416      410.648721    ;  uncertainty theta = 0.001535, k = 0.069985
         9         8        43     1      108.482079      402.739687    ;  uncertainty theta = 0.000859, k = 0.036544
         9         8        44     1      108.482079      402.739687    ;  uncertainty theta = 0.000859, k = 0.036544
        10         5        53     1      105.246643      446.517028    ;  uncertainty theta = 0.004204, k = 0.177955
        10        11        12     1      113.070839      435.784547    ;  uncertainty theta = 0.006920, k = 0.140238
        10        11        13     1      124.950012      804.911939    ;  uncertainty theta = 0.003994, k = 0.055585
        11        10        18     1      116.250000      347.593576    ;  uncertainty theta = 0.004441, k = 0.081627
        11        12        14     1      122.197128      370.860213    ;  uncertainty theta = 0.005964, k = 0.255742
        11        12        15     1      118.123451      287.405674    ;  uncertainty theta = 0.005808, k = 0.204925
        12        11        13     1      120.002197      453.227350    ;  uncertainty theta = 0.007890, k = 0.121396
        12        14        19     1      111.845421      637.059456    ;  uncertainty theta = 0.004719, k = 0.108197
        12        15        20     1       89.170425     1132.634133    ;  uncertainty theta = 0.004755, k = 0.314956
        14        12        15     1      116.136452      646.965173    ;  uncertainty theta = 0.002239, k = 0.246117
        14        19        20     1      115.716957      690.992937    ;  uncertainty theta = 0.003156, k = 0.158093
        14        19        24     1      124.040390      433.932787    ;  uncertainty theta = 0.004363, k = 0.201750
        15        20        19     1      109.672325      507.238336    ;  uncertainty theta = 0.002750, k = 0.124654
        15        20        21     1      124.458923      318.004972    ;  uncertainty theta = 0.003631, k = 0.249957
        19        20        21     1      122.449425      322.713122    ;  uncertainty theta = 0.004108, k = 0.373686
        19        24        23     1      106.939438      596.797522    ;  uncertainty theta = 0.003584, k = 0.044131
        19        24        30     1      108.548073      392.911220    ;  uncertainty theta = 0.001454, k = 0.086868
        19        24        31     1      108.548073      392.911220    ;  uncertainty theta = 0.001454, k = 0.086868
        20        19        24     1      120.498146      325.489963    ;  uncertainty theta = 0.004995, k = 0.174544
        20        21        22     1      109.701111      686.046080    ;  uncertainty theta = 0.001850, k = 0.201796
        20        21        26     1      108.925659      409.463193    ;  uncertainty theta = 0.001395, k = 0.154098
        20        21        27     1      108.925659      409.463193    ;  uncertainty theta = 0.001395, k = 0.154098
        21        22        23     1      108.084244      491.834927    ;  uncertainty theta = 0.003315, k = 0.091086
        21        22        25     1      107.580322      510.743273    ;  uncertainty theta = 0.002764, k = 0.057722
        22        21        26     1      109.358154      448.409487    ;  uncertainty theta = 0.001850, k = 0.074310
        22        21        27     1      109.358154      448.409487    ;  uncertainty theta = 0.001850, k = 0.074310
        22        23        24     1      112.487526      700.788206    ;  uncertainty theta = 0.002677, k = 0.118016
        22        23        28     1      108.920166      453.721493    ;  uncertainty theta = 0.001526, k = 0.064884
        22        23        29     1      108.920166      453.721493    ;  uncertainty theta = 0.001526, k = 0.064884
        22        25        32     1      110.438461      450.024231    ;  uncertainty theta = 0.001821, k = 0.029766
        22        25        33     1      110.438461      450.024231    ;  uncertainty theta = 0.001821, k = 0.029766
        22        25        34     1      110.438461      450.024231    ;  uncertainty theta = 0.001821, k = 0.029766
        23        22        25     1      108.245483      523.945384    ;  uncertainty theta = 0.002945, k = 0.105030
        23        24        30     1      108.704140      394.566535    ;  uncertainty theta = 0.001154, k = 0.056791
        23        24        31     1      108.704140      394.566535    ;  uncertainty theta = 0.001154, k = 0.056791
        24        23        28     1      108.660522      413.983038    ;  uncertainty theta = 0.001451, k = 0.079858
        24        23        29     1      108.660522      413.983038    ;  uncertainty theta = 0.001451, k = 0.079858
        26        21        27     1      104.710770      316.430897    ;  uncertainty theta = 0.002647, k = 0.058044
        28        23        29     1      105.686386      320.062785    ;  uncertainty theta = 0.001993, k = 0.069558
        30        24        31     1      105.018166      307.701164    ;  uncertainty theta = 0.001306, k = 0.028790
        32        25        33     1      106.707680      321.292396    ;  uncertainty theta = 0.002211, k = 0.028957
        32        25        34     1      106.707680      321.292396    ;  uncertainty theta = 0.002211, k = 0.028957
        33        25        34     1      106.707680      321.292396    ;  uncertainty theta = 0.002211, k = 0.028957
        35         7        42     1      106.313622      362.200292    ;  uncertainty theta = 0.002423, k = 0.146630
        35        37        38     1      116.622971      385.561065    ;  uncertainty theta = 0.001770, k = 0.124804
        35        37        39     1      116.622971      385.561065    ;  uncertainty theta = 0.001770, k = 0.124804
        36        35        37     1      123.396584      724.695474    ;  uncertainty theta = 0.001503, k = 0.174408
        37        38        47     1      109.352982      479.364486    ;  uncertainty theta = 0.001224, k = 0.042687
        37        38        48     1      109.352982      479.364486    ;  uncertainty theta = 0.001224, k = 0.042687
        37        38        49     1      109.352982      479.364486    ;  uncertainty theta = 0.001224, k = 0.042687
        37        39        50     1      109.352982      479.364486    ;  uncertainty theta = 0.001224, k = 0.042687
        37        39        51     1      109.352982      479.364486    ;  uncertainty theta = 0.001224, k = 0.042687
        37        39        52     1      109.352982      479.364486    ;  uncertainty theta = 0.001224, k = 0.042687
        38        37        39     1      118.428368      428.731644    ;  uncertainty theta = 0.003391, k = 0.223109
        40         6        41     1      105.326035      326.596294    ;  uncertainty theta = 0.002223, k = 0.051835
        43         8        44     1      104.655197      318.642921    ;  uncertainty theta = 0.002537, k = 0.034949
        45         9        46     1      105.089188      316.666285    ;  uncertainty theta = 0.002339, k = 0.045277
        47        38        48     1      106.824196      329.099123    ;  uncertainty theta = 0.001131, k = 0.027019
        47        38        49     1      106.824196      329.099123    ;  uncertainty theta = 0.001131, k = 0.027019
        48        38        49     1      106.824196      329.099123    ;  uncertainty theta = 0.001131, k = 0.027019
        50        39        51     1      106.824196      329.099123    ;  uncertainty theta = 0.001131, k = 0.027019
        50        39        52     1      106.824196      329.099123    ;  uncertainty theta = 0.001131, k = 0.027019
        51        39        52     1      106.824196      329.099123    ;  uncertainty theta = 0.001131, k = 0.027019
        54        55        58     1      105.829445      849.929713    ;  uncertainty theta = 0.003295, k = 0.123491
        54        56        57     1      119.312515      281.222756    ;  uncertainty theta = 0.004457, k = 0.194214
        54        56        59     1      104.095680      894.217828    ;  uncertainty theta = 0.003560, k = 0.130870
        55        54        56     1      113.925087      819.062307    ;  uncertainty theta = 0.006375, k = 0.138151
        55        58        59     1      110.811996      803.412847    ;  uncertainty theta = 0.002781, k = 0.132800
        55        58        63     1      129.305099      433.238401    ;  uncertainty theta = 0.002942, k = 0.062733
        56        59        58     1      106.373695      734.110942    ;  uncertainty theta = 0.001343, k = 0.052811
        56        59        60     1      131.858231      397.009575    ;  uncertainty theta = 0.002793, k = 0.060818
        57        56        59     1      117.739952      284.199075    ;  uncertainty theta = 0.005737, k = 0.165040
        58        59        60     1      118.976112      343.210642    ;  uncertainty theta = 0.002318, k = 0.104568
        58        63        62     1      115.856552      518.910487    ;  uncertainty theta = 0.001994, k = 0.120058
        58        63        67     1      122.052711      283.299147    ;  uncertainty theta = 0.004912, k = 0.092317
        59        58        63     1      118.306519      384.408767    ;  uncertainty theta = 0.002967, k = 0.069906
        59        60        61     1      117.049454      521.742457    ;  uncertainty theta = 0.002066, k = 0.066049
        59        60        64     1      122.318825      292.481238    ;  uncertainty theta = 0.001872, k = 0.060901
        60        61        62     1      121.664452      503.206346    ;  uncertainty theta = 0.002042, k = 0.085639
        60        61        65     1      120.117409      280.419997    ;  uncertainty theta = 0.002005, k = 0.050154
        61        60        64     1      120.733109      279.225116    ;  uncertainty theta = 0.001732, k = 0.040109
        61        62        63     1      124.195114      388.063797    ;  uncertainty theta = 0.002620, k = 0.115034
        61        62        66     1      119.266090      453.583657    ;  uncertainty theta = 0.001261, k = 0.086193
        62        61        65     1      120.048485      286.259441    ;  uncertainty theta = 0.002021, k = 0.037055
        62        63        67     1      122.136879      284.830001    ;  uncertainty theta = 0.003440, k = 0.107023
        63        62        66     1      120.357010      445.461483    ;  uncertainty theta = 0.001694, k = 0.072741

[ dihedrals ] ; propers for gromacs 4.5 or higher, use funct 9
;       ai        aj        ak        al funct           phase               k        pn
         1         2         3         5     9        0.000000        0.782736         1    ;  uncertainty k = 0.579708
         1         2         3         5     9      180.000000        0.256595         2    ;  uncertainty k = 0.183837
         1         2         3         5     9        0.000000       -0.057415         3    ;  uncertainty k = 0.055579
         1         2         3         5     9      180.000000        0.474301         4    ;  uncertainty k = 0.249343
         1         2         3         9     9        0.000000        0.450341         1    ;  uncertainty k = 0.580146
         1         2         3         9     9      180.000000        0.152502         2    ;  uncertainty k = 0.385395
         1         2         3         9     9        0.000000        0.238101         3    ;  uncertainty k = 0.075908
         1         2         3         9     9      180.000000        0.386093         4    ;  uncertainty k = 0.154616
         1         2         3        17     9        0.000000        0.996439         1    ;  uncertainty k = 0.501477
         1         2         3        17     9      180.000000       -0.429260         2    ;  uncertainty k = 0.287059
         1         2         3        17     9        0.000000        0.106805         3    ;  uncertainty k = 0.113260
         1         2         3        17     9      180.000000        0.180112         4    ;  uncertainty k = 0.090468
         1        54        55        58     9        0.000000        0.582708         1    ;  uncertainty k = 0.377384
         1        54        55        58     9      180.000000       18.920532         2    ;  uncertainty k = 0.366398
         1        54        55        58     9        0.000000        1.918744         3    ;  uncertainty k = 0.636156
         1        54        55        58     9      180.000000        1.555865         4    ;  uncertainty k = 0.371457
         1        54        56        57     9        0.000000        2.079592         1    ;  uncertainty k = 1.068847
         1        54        56        57     9      180.000000        2.623626         2    ;  uncertainty k = 0.692037
         1        54        56        57     9        0.000000        1.251467         3    ;  uncertainty k = 0.406027
         1        54        56        57     9      180.000000        0.014364         4    ;  uncertainty k = 0.188280
         1        54        56        59     9        0.000000        0.843799         1    ;  uncertainty k = 1.922357
         1        54        56        59     9      180.000000        8.848642         2    ;  uncertainty k = 0.722973
         1        54        56        59     9        0.000000        1.482156         3    ;  uncertainty k = 0.459871
         1        54        56        59     9      180.000000        0.209984         4    ;  uncertainty k = 0.409628
         2         1        54        55     9        0.000000        3.428689         1    ;  uncertainty k = 0.485550
         2         1        54        55     9      180.000000        3.124974         2    ;  uncertainty k = 0.273888
         2         1        54        55     9        0.000000        0.530894         3    ;  uncertainty k = 0.413780
         2         1        54        55     9      180.000000       -0.177744         4    ;  uncertainty k = 0.146720
         2         1        54        56     9        0.000000        2.070163         1    ;  uncertainty k = 1.242404
         2         1        54        56     9      180.000000        4.576203         2    ;  uncertainty k = 0.225158
         2         1        54        56     9        0.000000        0.532110         3    ;  uncertainty k = 0.332554
         2         1        54        56     9      180.000000       -0.259239         4    ;  uncertainty k = 0.081617
         2         3         5         6     9        0.000000       -2.790014         1    ;  uncertainty k = 0.741108
         2         3         5         6     9      180.000000       -0.357857         2    ;  uncertainty k = 0.390534
         2         3         5         6     9        0.000000        0.572178         3    ;  uncertainty k = 0.189077
         2         3         5         6     9      180.000000       -0.066154         4    ;  uncertainty k = 0.134334
         2         3         5        10     9        0.000000        0.334140         1    ;  uncertainty k = 0.999809
         2         3         5        10     9      180.000000       -1.206571         2    ;  uncertainty k = 0.716117
         2         3         5        10     9        0.000000        0.378920         3    ;  uncertainty k = 0.392218
         2         3         5        10     9      180.000000       -0.031018         4    ;  uncertainty k = 0.411494
         2         3         5        53     9        0.000000        0.010200         1    ;  uncertainty k = 1.093155
         2         3         5        53     9      180.000000       -1.398424         2    ;  uncertainty k = 0.447493
         2         3         5        53     9        0.000000        0.497574         3    ;  uncertainty k = 0.278232
         2         3         5        53     9      180.000000       -0.277412         4    ;  uncertainty k = 0.118946
         2         3         9         8     9        0.000000       -4.181963         1    ;  uncertainty k = 0.765381
         2         3         9         8     9      180.000000        0.196814         2    ;  uncertainty k = 0.110251
         2         3         9         8     9        0.000000        0.879606         3    ;  uncertainty k = 0.092089
         2         3         9         8     9      180.000000       -0.162768         4    ;  uncertainty k = 0.115727
         2         3         9        45     9        0.000000       -0.401587         1    ;  uncertainty k = 0.579117
         2         3         9        45     9      180.000000       -1.390056         2    ;  uncertainty k = 0.406242
         2         3         9        45     9        0.000000        0.935805         3    ;  uncertainty k = 0.106703
         2         3         9        45     9      180.000000       -0.297071         4    ;  uncertainty k = 0.073674
         2         3         9        46     9        0.000000       -0.401587         1    ;  uncertainty k = 0.579117
         2         3         9        46     9      180.000000       -1.390056         2    ;  uncertainty k = 0.406242
         2         3         9        46     9        0.000000        0.935805         3    ;  uncertainty k = 0.106703
         2         3         9        46     9      180.000000       -0.297071         4    ;  uncertainty k = 0.073674
         3         2         1         4     9        0.000000        4.504275         1    ;  uncertainty k = 1.122835
         3         2         1         4     9      180.000000       14.072007         2    ;  uncertainty k = 0.098122
         3         2         1         4     9        0.000000        0.388296         3    ;  uncertainty k = 0.197328
         3         2         1         4     9      180.000000       -0.445489         4    ;  uncertainty k = 0.164288
         3         2         1        54     9        0.000000        3.634964         1    ;  uncertainty k = 1.878097
         3         2         1        54     9      180.000000       13.475425         2    ;  uncertainty k = 0.317788
         3         2         1        54     9        0.000000        1.298352         3    ;  uncertainty k = 0.221305
         3         2         1        54     9      180.000000       -1.515806         4    ;  uncertainty k = 0.484595
         3         5         6         7     9        0.000000       -1.411516         1    ;  uncertainty k = 2.691169
         3         5         6         7     9      180.000000       -1.372207         2    ;  uncertainty k = 1.243261
         3         5         6         7     9        0.000000        0.524016         3    ;  uncertainty k = 0.490355
         3         5         6         7     9      180.000000       -1.214755         4    ;  uncertainty k = 0.205521
         3         5         6        40     9        0.000000       -0.884250         1    ;  uncertainty k = 0.510239
         3         5         6        40     9      180.000000       -0.617965         2    ;  uncertainty k = 0.173228
         3         5         6        40     9        0.000000        0.125385         3    ;  uncertainty k = 0.061812
         3         5         6        40     9      180.000000       -0.135307         4    ;  uncertainty k = 0.112325
         3         5         6        41     9        0.000000       -0.884250         1    ;  uncertainty k = 0.510239
         3         5         6        41     9      180.000000       -0.617965         2    ;  uncertainty k = 0.173228
         3         5         6        41     9        0.000000        0.125385         3    ;  uncertainty k = 0.061812
         3         5         6        41     9      180.000000       -0.135307         4    ;  uncertainty k = 0.112325
         3         5        10        11     9        0.000000        0.798704         1    ;  uncertainty k = 0.613991
         3         5        10        11     9      180.000000        0.227906         2    ;  uncertainty k = 0.170641
         3         5        10        11     9        0.000000       -0.089408         3    ;  uncertainty k = 0.113427
         3         5        10        11     9      180.000000        0.456367         4    ;  uncertainty k = 0.212463
         3         5        10        18     9        0.000000        2.647236         1    ;  uncertainty k = 0.621076
         3         5        10        18     9      180.000000       -1.566258         2    ;  uncertainty k = 0.400846
         3         5        10        18     9        0.000000        0.520529         3    ;  uncertainty k = 0.250143
         3         5        10        18     9      180.000000        0.164313         4    ;  uncertainty k = 0.146295
         3         9         8         7     9        0.000000       -5.546852         1    ;  uncertainty k = 0.767718
         3         9         8         7     9      180.000000       -1.075981         2    ;  uncertainty k = 0.642557
         3         9         8         7     9        0.000000        1.429251         3    ;  uncertainty k = 0.142444
         3         9         8         7     9      180.000000       -1.195986         4    ;  uncertainty k = 0.211059
         3         9         8        43     9        0.000000       -1.162850         1    ;  uncertainty k = 0.418541
         3         9         8        43     9      180.000000       -0.680532         2    ;  uncertainty k = 0.281867
         3         9         8        43     9        0.000000        0.405088         3    ;  uncertainty k = 0.185696
         3         9         8        43     9      180.000000       -0.084244         4    ;  uncertainty k = 0.033913
         3         9         8        44     9        0.000000       -1.162850         1    ;  uncertainty k = 0.418541
         3         9         8        44     9      180.000000       -0.680532         2    ;  uncertainty k = 0.281867
         3         9         8        44     9        0.000000        0.405088         3    ;  uncertainty k = 0.185696
         3         9         8        44     9      180.000000       -0.084244         4    ;  uncertainty k = 0.033913
         4         1         2        16     9        0.000000        2.235192         1    ;  uncertainty k = 1.010007
         4         1         2        16     9      180.000000       15.095107         2    ;  uncertainty k = 0.383975
         4         1         2        16     9        0.000000        1.987664         3    ;  uncertainty k = 0.303345
         4         1         2        16     9      180.000000       -0.407953         4    ;  uncertainty k = 0.169067
         4         1        54        55     9        0.000000       -3.872052         1    ;  uncertainty k = 1.371779
         4         1        54        55     9      180.000000        3.340442         2    ;  uncertainty k = 0.475513
         4         1        54        55     9        0.000000        0.465542         3    ;  uncertainty k = 0.262178
         4         1        54        55     9      180.000000        0.118326         4    ;  uncertainty k = 0.108770
         4         1        54        56     9        0.000000       -0.800070         1    ;  uncertainty k = 0.471350
         4         1        54        56     9      180.000000        4.754326         2    ;  uncertainty k = 0.428554
         4         1        54        56     9        0.000000        0.625940         3    ;  uncertainty k = 0.109880
         4         1        54        56     9      180.000000        0.186891         4    ;  uncertainty k = 0.194444
         5         3         2        16     9        0.000000        2.611614         1    ;  uncertainty k = 0.665216
         5         3         2        16     9      180.000000       -1.544826         2    ;  uncertainty k = 0.371129
         5         3         2        16     9        0.000000        0.512103         3    ;  uncertainty k = 0.257030
         5         3         2        16     9      180.000000        0.153383         4    ;  uncertainty k = 0.146045
         5         3         9         8     9        0.000000       -4.781471         1    ;  uncertainty k = 1.428154
         5         3         9         8     9      180.000000        0.200773         2    ;  uncertainty k = 0.737061
         5         3         9         8     9        0.000000        0.927374         3    ;  uncertainty k = 0.341558
         5         3         9         8     9      180.000000       -1.205871         4    ;  uncertainty k = 0.154333
         5         3         9        45     9        0.000000       -0.736087         1    ;  uncertainty k = 0.622065
         5         3         9        45     9      180.000000       -0.673872         2    ;  uncertainty k = 0.266300
         5         3         9        45     9        0.000000        0.107198         3    ;  uncertainty k = 0.045752
         5         3         9        45     9      180.000000       -0.121595         4    ;  uncertainty k = 0.094109
         5         3         9        46     9        0.000000       -0.736087         1    ;  uncertainty k = 0.622065
         5         3         9        46     9      180.000000       -0.673872         2    ;  uncertainty k = 0.266300
         5         3         9        46     9        0.000000        0.107198         3    ;  uncertainty k = 0.045752
         5         3         9        46     9      180.000000       -0.121595         4    ;  uncertainty k = 0.094109
         5         6         7         8     9        0.000000       -3.685858         1    ;  uncertainty k = 1.543474
         5         6         7         8     9      180.000000       -0.285065         2    ;  uncertainty k = 0.572018
         5         6         7         8     9        0.000000        0.981156         3    ;  uncertainty k = 0.134158
         5         6         7         8     9      180.000000       -1.148830         4    ;  uncertainty k = 0.219793
         5         6         7        35     9        0.000000       -1.988880         1    ;  uncertainty k = 0.819118
         5         6         7        35     9      180.000000       -0.959087         2    ;  uncertainty k = 0.272882
         5         6         7        35     9        0.000000        0.443360         3    ;  uncertainty k = 0.318150
         5         6         7        35     9      180.000000        0.183680         4    ;  uncertainty k = 0.094585
         5         6         7        42     9        0.000000       -1.930129         1    ;  uncertainty k = 0.461178
         5         6         7        42     9      180.000000       -0.446539         2    ;  uncertainty k = 0.219585
         5         6         7        42     9        0.000000        0.087588         3    ;  uncertainty k = 0.087001
         5         6         7        42     9      180.000000       -0.164536         4    ;  uncertainty k = 0.141862
         5        10        11        12     9        0.000000        3.955843         1    ;  uncertainty k = 1.375018
         5        10        11        12     9      180.000000       12.511310         2    ;  uncertainty k = 0.157161
         5        10        11        12     9        0.000000        1.265290         3    ;  uncertainty k = 0.258416
         5        10        11        12     9      180.000000       -1.434391         4    ;  uncertainty k = 0.492912
         5        10        11        13     9        0.000000        4.208886         1    ;  uncertainty k = 1.051963
         5        10        11        13     9      180.000000       13.258813         2    ;  uncertainty k = 0.102362
         5        10        11        13     9        0.000000        0.423146         3    ;  uncertainty k = 0.283109
         5        10        11        13     9      180.000000       -0.345444         4    ;  uncertainty k = 0.133898
         6         5         3         9     9        0.000000       -1.477542         1    ;  uncertainty k = 2.507103
         6         5         3         9     9      180.000000        0.529200         2    ;  uncertainty k = 0.961224
         6         5         3         9     9        0.000000        0.425042         3    ;  uncertainty k = 0.506102
         6         5         3         9     9      180.000000       -1.114942         4    ;  uncertainty k = 0.258553
         6         5         3        17     9        0.000000       -1.276279         1    ;  uncertainty k = 0.311381
         6         5         3        17     9      180.000000       -0.199837         2    ;  uncertainty k = 0.245320
         6         5         3        17     9        0.000000       -0.231414         3    ;  uncertainty k = 0.061726
         6         5         3        17     9      180.000000       -0.145735         4    ;  uncertainty k = 0.052688
         6         5        10        11     9        0.000000        0.365179         1    ;  uncertainty k = 0.381956
         6         5        10        11     9      180.000000        0.212131         2    ;  uncertainty k = 0.301001
         6         5        10        11     9        0.000000        0.181087         3    ;  uncertainty k = 0.072733
         6         5        10        11     9      180.000000        0.343018         4    ;  uncertainty k = 0.126684
         6         5        10        18     9        0.000000        0.944364         1    ;  uncertainty k = 0.463017
         6         5        10        18     9      180.000000       -0.511752         2    ;  uncertainty k = 0.348976
         6         5        10        18     9        0.000000        0.327111         3    ;  uncertainty k = 0.178626
         6         5        10        18     9      180.000000        0.059980         4    ;  uncertainty k = 0.085878
         6         7         8         9     9        0.000000       -5.487464         1    ;  uncertainty k = 0.622101
         6         7         8         9     9      180.000000        0.630063         2    ;  uncertainty k = 0.545359
         6         7         8         9     9        0.000000        1.367198         3    ;  uncertainty k = 0.173804
         6         7         8         9     9      180.000000       -1.032851         4    ;  uncertainty k = 0.273094
         6         7         8        43     9        0.000000       -1.226844         1    ;  uncertainty k = 0.266748
         6         7         8        43     9      180.000000       -0.345485         2    ;  uncertainty k = 0.101300
         6         7         8        43     9        0.000000        0.394880         3    ;  uncertainty k = 0.108227
         6         7         8        43     9      180.000000       -0.070781         4    ;  uncertainty k = 0.048007
         6         7         8        44     9        0.000000       -1.226844         1    ;  uncertainty k = 0.266748
         6         7         8        44     9      180.000000       -0.345485         2    ;  uncertainty k = 0.101300
         6         7         8        44     9        0.000000        0.394880         3    ;  uncertainty k = 0.108227
         6         7         8        44     9      180.000000       -0.070781         4    ;  uncertainty k = 0.048007
         6         7        35        36     9        0.000000       -1.170185         1    ;  uncertainty k = 0.334655
         6         7        35        36     9      180.000000        4.880266         2    ;  uncertainty k = 0.323686
         6         7        35        36     9        0.000000        1.279706         3    ;  uncertainty k = 0.118363
         6         7        35        36     9      180.000000        0.575624         4    ;  uncertainty k = 0.083005
         6         7        35        37     9        0.000000       -1.631697         1    ;  uncertainty k = 0.279350
         6         7        35        37     9      180.000000        3.392199         2    ;  uncertainty k = 0.510159
         6         7        35        37     9        0.000000        0.814553         3    ;  uncertainty k = 0.127255
         6         7        35        37     9      180.000000        0.128487         4    ;  uncertainty k = 0.053904
         7         6         5        10     9        0.000000       -2.823350         1    ;  uncertainty k = 0.488930
         7         6         5        10     9      180.000000       -0.460801         2    ;  uncertainty k = 0.536332
         7         6         5        10     9        0.000000        0.760014         3    ;  uncertainty k = 0.189206
         7         6         5        10     9      180.000000       -0.140462         4    ;  uncertainty k = 0.174339
         7         6         5        53     9        0.000000       -0.729544         1    ;  uncertainty k = 0.497030
         7         6         5        53     9      180.000000       -0.791957         2    ;  uncertainty k = 0.456970
         7         6         5        53     9        0.000000       -0.041902         3    ;  uncertainty k = 0.196139
         7         6         5        53     9      180.000000       -0.091107         4    ;  uncertainty k = 0.082280
         7         8         9        45     9        0.000000       -1.242142         1    ;  uncertainty k = 0.333100
         7         8         9        45     9      180.000000       -0.547474         2    ;  uncertainty k = 0.199769
         7         8         9        45     9        0.000000        0.486958         3    ;  uncertainty k = 0.161841
         7         8         9        45     9      180.000000       -0.063234         4    ;  uncertainty k = 0.050819
         7         8         9        46     9        0.000000       -1.242142         1    ;  uncertainty k = 0.333100
         7         8         9        46     9      180.000000       -0.547474         2    ;  uncertainty k = 0.199769
         7         8         9        46     9        0.000000        0.486958         3    ;  uncertainty k = 0.161841
         7         8         9        46     9      180.000000       -0.063234         4    ;  uncertainty k = 0.050819
         7        35        37        38     9        0.000000        9.050821         1    ;  uncertainty k = 0.304912
         7        35        37        38     9      180.000000        6.374692         2    ;  uncertainty k = 0.405917
         7        35        37        38     9        0.000000        1.178678         3    ;  uncertainty k = 0.297789
         7        35        37        38     9      180.000000        0.054538         4    ;  uncertainty k = 0.124306
         7        35        37        39     9        0.000000        9.050821         1    ;  uncertainty k = 0.304912
         7        35        37        39     9      180.000000        6.374692         2    ;  uncertainty k = 0.405917
         7        35        37        39     9        0.000000        1.178678         3    ;  uncertainty k = 0.297789
         7        35        37        39     9      180.000000        0.054538         4    ;  uncertainty k = 0.124306
         8         7         6        40     9        0.000000       -1.411123         1    ;  uncertainty k = 0.345622
         8         7         6        40     9      180.000000       -0.225290         2    ;  uncertainty k = 0.172594
         8         7         6        40     9        0.000000        0.346843         3    ;  uncertainty k = 0.114252
         8         7         6        40     9      180.000000       -0.038457         4    ;  uncertainty k = 0.044896
         8         7         6        41     9        0.000000       -1.411123         1    ;  uncertainty k = 0.345622
         8         7         6        41     9      180.000000       -0.225290         2    ;  uncertainty k = 0.172594
         8         7         6        41     9        0.000000        0.346843         3    ;  uncertainty k = 0.114252
         8         7         6        41     9      180.000000       -0.038457         4    ;  uncertainty k = 0.044896
         8         7        35        36     9        0.000000       -1.412751         1    ;  uncertainty k = 0.366362
         8         7        35        36     9      180.000000        4.939282         2    ;  uncertainty k = 0.250194
         8         7        35        36     9        0.000000        1.341107         3    ;  uncertainty k = 0.099404
         8         7        35        36     9      180.000000        0.562838         4    ;  uncertainty k = 0.064019
         8         7        35        37     9        0.000000       -1.501807         1    ;  uncertainty k = 0.463410
         8         7        35        37     9      180.000000        3.323275         2    ;  uncertainty k = 0.502078
         8         7        35        37     9        0.000000        0.807080         3    ;  uncertainty k = 0.124119
         8         7        35        37     9      180.000000        0.125518         4    ;  uncertainty k = 0.039696
         8         9         3        17     9        0.000000       -1.457970         1    ;  uncertainty k = 0.301606
         8         9         3        17     9      180.000000       -0.243369         2    ;  uncertainty k = 0.230875
         8         9         3        17     9        0.000000        0.031452         3    ;  uncertainty k = 0.098262
         8         9         3        17     9      180.000000       -0.150453         4    ;  uncertainty k = 0.108319
         9         3         2        16     9        0.000000        0.667253         1    ;  uncertainty k = 0.748838
         9         3         2        16     9      180.000000       -0.436263         2    ;  uncertainty k = 0.343358
         9         3         2        16     9        0.000000        0.284273         3    ;  uncertainty k = 0.143939
         9         3         2        16     9      180.000000        0.037748         4    ;  uncertainty k = 0.076476
         9         3         5        10     9        0.000000       -2.802236         1    ;  uncertainty k = 0.472735
         9         3         5        10     9      180.000000       -0.118929         2    ;  uncertainty k = 0.409595
         9         3         5        10     9        0.000000        0.581456         3    ;  uncertainty k = 0.173269
         9         3         5        10     9      180.000000       -0.069835         4    ;  uncertainty k = 0.193656
         9         3         5        53     9        0.000000       -1.268948         1    ;  uncertainty k = 0.259320
         9         3         5        53     9      180.000000       -0.295464         2    ;  uncertainty k = 0.370763
         9         3         5        53     9        0.000000       -0.215637         3    ;  uncertainty k = 0.082389
         9         3         5        53     9      180.000000       -0.166679         4    ;  uncertainty k = 0.069585
         9         8         7        35     9        0.000000       -3.041090         1    ;  uncertainty k = 1.250697
         9         8         7        35     9      180.000000       -0.383141         2    ;  uncertainty k = 0.506412
         9         8         7        35     9        0.000000        0.568121         3    ;  uncertainty k = 0.143697
         9         8         7        35     9      180.000000        0.124098         4    ;  uncertainty k = 0.149878
         9         8         7        42     9        0.000000       -2.462407         1    ;  uncertainty k = 0.395127
         9         8         7        42     9      180.000000        0.138659         2    ;  uncertainty k = 0.106163
         9         8         7        42     9        0.000000        0.247790         3    ;  uncertainty k = 0.112075
         9         8         7        42     9      180.000000       -0.234904         4    ;  uncertainty k = 0.140378
        10         5         3        17     9        0.000000        0.060901         1    ;  uncertainty k = 1.091637
        10         5         3        17     9      180.000000       -1.471161         2    ;  uncertainty k = 0.522889
        10         5         3        17     9        0.000000        0.494909         3    ;  uncertainty k = 0.271035
        10         5         3        17     9      180.000000       -0.255431         4    ;  uncertainty k = 0.120126
        10         5         6        40     9        0.000000       -0.426053         1    ;  uncertainty k = 0.715619
        10         5         6        40     9      180.000000       -1.218663         2    ;  uncertainty k = 0.323961
        10         5         6        40     9        0.000000        0.959757         3    ;  uncertainty k = 0.057975
        10         5         6        40     9      180.000000       -0.287486         4    ;  uncertainty k = 0.054397
        10         5         6        41     9        0.000000       -0.426053         1    ;  uncertainty k = 0.715619
        10         5         6        41     9      180.000000       -1.218663         2    ;  uncertainty k = 0.323961
        10         5         6        41     9        0.000000        0.959757         3    ;  uncertainty k = 0.057975
        10         5         6        41     9      180.000000       -0.287486         4    ;  uncertainty k = 0.054397
        10        11        12        14     9        0.000000        2.331066         1    ;  uncertainty k = 1.152102
        10        11        12        14     9      180.000000        2.596169         2    ;  uncertainty k = 0.278815
        10        11        12        14     9        0.000000        0.009927         3    ;  uncertainty k = 0.144977
        10        11        12        14     9      180.000000       -0.114334         4    ;  uncertainty k = 0.149289
        10        11        12        15     9        0.000000        3.367960         1    ;  uncertainty k = 1.051353
        10        11        12        15     9      180.000000        3.218021         2    ;  uncertainty k = 0.680396
        10        11        12        15     9        0.000000        1.143577         3    ;  uncertainty k = 0.311002
        10        11        12        15     9      180.000000       -0.348976         4    ;  uncertainty k = 0.193639
        11        10         5        53     9        0.000000        1.089600         1    ;  uncertainty k = 0.336795
        11        10         5        53     9      180.000000       -0.431387         2    ;  uncertainty k = 0.172745
        11        10         5        53     9        0.000000        0.083106         3    ;  uncertainty k = 0.110757
        11        10         5        53     9      180.000000        0.217749         4    ;  uncertainty k = 0.051819
        11        12        14        19     9        0.000000        0.338836         1    ;  uncertainty k = 0.784673
        11        12        14        19     9      180.000000       19.192857         2    ;  uncertainty k = 0.359716
        11        12        14        19     9        0.000000        1.903447         3    ;  uncertainty k = 0.386883
        11        12        14        19     9      180.000000        1.368535         4    ;  uncertainty k = 0.528772
        11        12        15        20     9        0.000000        0.370727         1    ;  uncertainty k = 1.804242
        11        12        15        20     9      180.000000        8.920830         2    ;  uncertainty k = 1.081273
        11        12        15        20     9        0.000000        0.589745         3    ;  uncertainty k = 1.110553
        11        12        15        20     9      180.000000        0.676613         4    ;  uncertainty k = 0.547063
        12        11        10        18     9        0.000000       -0.086051         1    ;  uncertainty k = 0.569285
        12        11        10        18     9      180.000000        6.824223         2    ;  uncertainty k = 1.004102
        12        11        10        18     9        0.000000        2.774672         3    ;  uncertainty k = 0.278048
        12        11        10        18     9      180.000000        0.087878         4    ;  uncertainty k = 0.345011
        12        14        19        20     9        0.000000       -0.476241         1    ;  uncertainty k = 0.425307
        12        14        19        20     9      180.000000       15.671500         2    ;  uncertainty k = 0.795841
        12        14        19        20     9        0.000000       -2.864533         3    ;  uncertainty k = 0.780902
        12        14        19        20     9      180.000000        1.605024         4    ;  uncertainty k = 0.448125
        12        14        19        24     9        0.000000        0.569206         1    ;  uncertainty k = 1.621980
        12        14        19        24     9      180.000000       12.800205         2    ;  uncertainty k = 0.282748
        12        14        19        24     9        0.000000        1.817073         3    ;  uncertainty k = 0.361654
        12        14        19        24     9      180.000000        0.682642         4    ;  uncertainty k = 0.136948
        12        15        20        19     9        0.000000       -0.523789         1    ;  uncertainty k = 1.004169
        12        15        20        19     9      180.000000       13.442345         2    ;  uncertainty k = 0.923619
        12        15        20        19     9        0.000000       -9.024257         3    ;  uncertainty k = 1.660071
        12        15        20        19     9      180.000000        1.636793         4    ;  uncertainty k = 0.487983
        12        15        20        21     9        0.000000        1.116166         1    ;  uncertainty k = 1.266411
        12        15        20        21     9      180.000000       10.158909         2    ;  uncertainty k = 0.818049
        12        15        20        21     9        0.000000        0.724355         3    ;  uncertainty k = 0.566010
        12        15        20        21     9      180.000000       -0.026620         4    ;  uncertainty k = 0.200593
        13        11        10        18     9        0.000000        2.038363         1    ;  uncertainty k = 0.746143
        13        11        10        18     9      180.000000       14.699346         2    ;  uncertainty k = 0.325315
        13        11        10        18     9        0.000000        1.840592         3    ;  uncertainty k = 0.226058
        13        11        10        18     9      180.000000       -0.518143         4    ;  uncertainty k = 0.264067
        13        11        12        14     9        0.000000       -0.975565         1    ;  uncertainty k = 1.614283
        13        11        12        14     9      180.000000        3.488550         2    ;  uncertainty k = 0.286154
        13        11        12        14     9        0.000000        0.632000         3    ;  uncertainty k = 0.220397
        13        11        12        14     9      180.000000        0.223278         4    ;  uncertainty k = 0.063243
        13        11        12        15     9        0.000000       -0.928770         1    ;  uncertainty k = 0.780300
        13        11        12        15     9      180.000000        4.634695         2    ;  uncertainty k = 0.475093
        13        11        12        15     9        0.000000        0.007574         3    ;  uncertainty k = 0.071977
        13        11        12        15     9      180.000000        0.288910         4    ;  uncertainty k = 0.240907
        14        12        15        20     9        0.000000        0.143511         1    ;  uncertainty k = 1.333641
        14        12        15        20     9      180.000000       14.564367         2    ;  uncertainty k = 1.374348
        14        12        15        20     9        0.000000       -9.893199         3    ;  uncertainty k = 1.620531
        14        12        15        20     9      180.000000        1.663619         4    ;  uncertainty k = 0.759588
        14        19        20        15     9        0.000000        0.087022         1    ;  uncertainty k = 0.519435
        14        19        20        15     9      180.000000       17.308740         2    ;  uncertainty k = 0.865665
        14        19        20        15     9        0.000000       -2.374264         3    ;  uncertainty k = 0.748324
        14        19        20        15     9      180.000000        1.160228         4    ;  uncertainty k = 0.641111
        14        19        20        21     9        0.000000        0.011055         1    ;  uncertainty k = 0.425259
        14        19        20        21     9      180.000000       14.953749         2    ;  uncertainty k = 0.328993
        14        19        20        21     9        0.000000        1.241934         3    ;  uncertainty k = 0.342959
        14        19        20        21     9      180.000000        1.144042         4    ;  uncertainty k = 0.470191
        14        19        24        23     9        0.000000       -3.954572         1    ;  uncertainty k = 1.035742
        14        19        24        23     9      180.000000        1.199577         2    ;  uncertainty k = 0.494541
        14        19        24        23     9        0.000000        0.552603         3    ;  uncertainty k = 0.196554
        14        19        24        23     9      180.000000        0.408701         4    ;  uncertainty k = 0.071879
        14        19        24        30     9        0.000000        0.678330         1    ;  uncertainty k = 0.150352
        14        19        24        30     9      180.000000        1.438459         2    ;  uncertainty k = 0.504096
        14        19        24        30     9        0.000000        0.609129         3    ;  uncertainty k = 0.196471
        14        19        24        30     9      180.000000        0.167234         4    ;  uncertainty k = 0.108981
        14        19        24        31     9        0.000000        0.678330         1    ;  uncertainty k = 0.150352
        14        19        24        31     9      180.000000        1.438459         2    ;  uncertainty k = 0.504096
        14        19        24        31     9        0.000000        0.609129         3    ;  uncertainty k = 0.196471
        14        19        24        31     9      180.000000        0.167234         4    ;  uncertainty k = 0.108981
        15        12        14        19     9        0.000000       -0.152600         1    ;  uncertainty k = 0.906407
        15        12        14        19     9      180.000000       20.432965         2    ;  uncertainty k = 0.275340
        15        12        14        19     9        0.000000       -2.337892         3    ;  uncertainty k = 1.016825
        15        12        14        19     9      180.000000        1.938626         4    ;  uncertainty k = 0.362221
        15        20        19        24     9        0.000000        0.239944         1    ;  uncertainty k = 0.547138
        15        20        19        24     9      180.000000       12.400727         2    ;  uncertainty k = 0.549556
        15        20        19        24     9        0.000000        0.936373         3    ;  uncertainty k = 0.318788
        15        20        19        24     9      180.000000        0.958147         4    ;  uncertainty k = 0.190163
        15        20        21        22     9        0.000000       -8.471687         1    ;  uncertainty k = 1.305576
        15        20        21        22     9      180.000000       -0.738803         2    ;  uncertainty k = 0.986263
        15        20        21        22     9        0.000000        0.572190         3    ;  uncertainty k = 0.535086
        15        20        21        22     9      180.000000        0.223231         4    ;  uncertainty k = 0.263405
        15        20        21        26     9        0.000000        0.153964         1    ;  uncertainty k = 0.629108
        15        20        21        26     9      180.000000        0.393717         2    ;  uncertainty k = 0.317135
        15        20        21        26     9        0.000000        0.658149         3    ;  uncertainty k = 0.161833
        15        20        21        26     9      180.000000       -0.071880         4    ;  uncertainty k = 0.067074
        15        20        21        27     9        0.000000        0.153964         1    ;  uncertainty k = 0.629108
        15        20        21        27     9      180.000000        0.393717         2    ;  uncertainty k = 0.317135
        15        20        21        27     9        0.000000        0.658149         3    ;  uncertainty k = 0.161833
        15        20        21        27     9      180.000000       -0.071880         4    ;  uncertainty k = 0.067074
        16         2         1        54     9        0.000000        0.110250         1    ;  uncertainty k = 0.390248
        16         2         1        54     9      180.000000        7.505353         2    ;  uncertainty k = 0.973320
        16         2         1        54     9        0.000000        2.698517         3    ;  uncertainty k = 0.437885
        16         2         1        54     9      180.000000       -0.073365         4    ;  uncertainty k = 0.377628
        16         2         3        17     9        0.000000        0.574518         1    ;  uncertainty k = 0.374392
        16         2         3        17     9      180.000000       -0.603787         2    ;  uncertainty k = 0.185582
        16         2         3        17     9        0.000000        0.185748         3    ;  uncertainty k = 0.131745
        16         2         3        17     9      180.000000        0.187739         4    ;  uncertainty k = 0.074084
        17         3         5        53     9        0.000000        1.515543         1    ;  uncertainty k = 0.281915
        17         3         5        53     9      180.000000       -0.673822         2    ;  uncertainty k = 0.155981
        17         3         5        53     9        0.000000       -0.219809         3    ;  uncertainty k = 0.164599
        17         3         5        53     9      180.000000       -0.045743         4    ;  uncertainty k = 0.125709
        17         3         9        45     9        0.000000        1.373783         1    ;  uncertainty k = 0.282221
        17         3         9        45     9      180.000000       -0.511051         2    ;  uncertainty k = 0.203914
        17         3         9        45     9        0.000000       -0.081347         3    ;  uncertainty k = 0.112980
        17         3         9        45     9      180.000000        0.042018         4    ;  uncertainty k = 0.028895
        17         3         9        46     9        0.000000        1.373783         1    ;  uncertainty k = 0.282221
        17         3         9        46     9      180.000000       -0.511051         2    ;  uncertainty k = 0.203914
        17         3         9        46     9        0.000000       -0.081347         3    ;  uncertainty k = 0.112980
        17         3         9        46     9      180.000000        0.042018         4    ;  uncertainty k = 0.028895
        18        10         5        53     9        0.000000        0.543896         1    ;  uncertainty k = 0.397136
        18        10         5        53     9      180.000000       -0.624323         2    ;  uncertainty k = 0.182566
        18        10         5        53     9        0.000000        0.192235         3    ;  uncertainty k = 0.116009
        18        10         5        53     9      180.000000        0.189280         4    ;  uncertainty k = 0.076527
        19        20        21        22     9        0.000000       -4.140071         1    ;  uncertainty k = 1.925675
        19        20        21        22     9      180.000000        2.074247         2    ;  uncertainty k = 0.552905
        19        20        21        22     9        0.000000       -0.109904         3    ;  uncertainty k = 0.505232
        19        20        21        22     9      180.000000        0.002033         4    ;  uncertainty k = 0.168271
        19        20        21        26     9        0.000000        0.751076         1    ;  uncertainty k = 0.572851
        19        20        21        26     9      180.000000        0.321327         2    ;  uncertainty k = 0.277446
        19        20        21        26     9        0.000000       -0.191165         3    ;  uncertainty k = 0.140749
        19        20        21        26     9      180.000000       -0.337116         4    ;  uncertainty k = 0.203995
        19        20        21        27     9        0.000000        0.751076         1    ;  uncertainty k = 0.572851
        19        20        21        27     9      180.000000        0.321327         2    ;  uncertainty k = 0.277446
        19        20        21        27     9        0.000000       -0.191165         3    ;  uncertainty k = 0.140749
        19        20        21        27     9      180.000000       -0.337116         4    ;  uncertainty k = 0.203995
        19        24        23        22     9        0.000000       -2.230974         1    ;  uncertainty k = 1.801449
        19        24        23        22     9      180.000000       -1.841150         2    ;  uncertainty k = 0.733686
        19        24        23        22     9        0.000000        2.407959         3    ;  uncertainty k = 0.680334
        19        24        23        22     9      180.000000       -0.535745         4    ;  uncertainty k = 0.301690
        19        24        23        28     9        0.000000        1.199598         1    ;  uncertainty k = 0.377899
        19        24        23        28     9      180.000000       -1.613470         2    ;  uncertainty k = 0.549592
        19        24        23        28     9        0.000000        0.472706         3    ;  uncertainty k = 0.260800
        19        24        23        28     9      180.000000        0.111560         4    ;  uncertainty k = 0.091588
        19        24        23        29     9        0.000000        1.199598         1    ;  uncertainty k = 0.377899
        19        24        23        29     9      180.000000       -1.613470         2    ;  uncertainty k = 0.549592
        19        24        23        29     9        0.000000        0.472706         3    ;  uncertainty k = 0.260800
        19        24        23        29     9      180.000000        0.111560         4    ;  uncertainty k = 0.091588
        20        19        24        23     9        0.000000       -4.440652         1    ;  uncertainty k = 1.431166
        20        19        24        23     9      180.000000        4.155396         2    ;  uncertainty k = 1.296225
        20        19        24        23     9        0.000000       -0.642889         3    ;  uncertainty k = 0.597439
        20        19        24        23     9      180.000000       -0.217610         4    ;  uncertainty k = 0.318749
        20        19        24        30     9        0.000000        0.013025         1    ;  uncertainty k = 0.359065
        20        19        24        30     9      180.000000        1.250042         2    ;  uncertainty k = 0.490358
        20        19        24        30     9        0.000000        0.121610         3    ;  uncertainty k = 0.182463
        20        19        24        30     9      180.000000       -0.043715         4    ;  uncertainty k = 0.054548
        20        19        24        31     9        0.000000        0.013025         1    ;  uncertainty k = 0.359065
        20        19        24        31     9      180.000000        1.250042         2    ;  uncertainty k = 0.490358
        20        19        24        31     9        0.000000        0.121610         3    ;  uncertainty k = 0.182463
        20        19        24        31     9      180.000000       -0.043715         4    ;  uncertainty k = 0.054548
        20        21        22        23     9        0.000000       -2.931117         1    ;  uncertainty k = 2.436693
        20        21        22        23     9      180.000000       -1.451129         2    ;  uncertainty k = 0.464093
        20        21        22        23     9        0.000000        1.404828         3    ;  uncertainty k = 0.130307
        20        21        22        23     9      180.000000       -0.528609         4    ;  uncertainty k = 0.249297
        20        21        22        25     9        0.000000       -2.021362         1    ;  uncertainty k = 1.008927
        20        21        22        25     9      180.000000       -1.118312         2    ;  uncertainty k = 0.472230
        20        21        22        25     9        0.000000        1.258207         3    ;  uncertainty k = 0.234248
        20        21        22        25     9      180.000000       -0.045254         4    ;  uncertainty k = 0.250793
        21        20        19        24     9        0.000000        0.282381         1    ;  uncertainty k = 0.657141
        21        20        19        24     9      180.000000       10.551064         2    ;  uncertainty k = 0.221306
        21        20        19        24     9        0.000000        1.077819         3    ;  uncertainty k = 0.516713
        21        20        19        24     9      180.000000        0.991474         4    ;  uncertainty k = 0.186199
        21        22        23        24     9        0.000000       -4.350974         1    ;  uncertainty k = 2.057076
        21        22        23        24     9      180.000000       -1.496991         2    ;  uncertainty k = 0.799614
        21        22        23        24     9        0.000000        0.281379         3    ;  uncertainty k = 0.338606
        21        22        23        24     9      180.000000       -0.187310         4    ;  uncertainty k = 0.252807
        21        22        23        28     9        0.000000       -6.987612         1    ;  uncertainty k = 0.982733
        21        22        23        28     9      180.000000       -0.297910         2    ;  uncertainty k = 0.446998
        21        22        23        28     9        0.000000        0.675891         3    ;  uncertainty k = 0.207193
        21        22        23        28     9      180.000000       -0.045061         4    ;  uncertainty k = 0.100310
        21        22        23        29     9        0.000000       -6.987612         1    ;  uncertainty k = 0.982733
        21        22        23        29     9      180.000000       -0.297910         2    ;  uncertainty k = 0.446998
        21        22        23        29     9        0.000000        0.675891         3    ;  uncertainty k = 0.207193
        21        22        23        29     9      180.000000       -0.045061         4    ;  uncertainty k = 0.100310
        21        22        25        32     9        0.000000       -4.178510         1    ;  uncertainty k = 0.410688
        21        22        25        32     9      180.000000       -2.187807         2    ;  uncertainty k = 0.398638
        21        22        25        32     9        0.000000        1.157619         3    ;  uncertainty k = 0.069416
        21        22        25        32     9      180.000000        0.075129         4    ;  uncertainty k = 0.097696
        21        22        25        33     9        0.000000       -4.178510         1    ;  uncertainty k = 0.410688
        21        22        25        33     9      180.000000       -2.187807         2    ;  uncertainty k = 0.398638
        21        22        25        33     9        0.000000        1.157619         3    ;  uncertainty k = 0.069416
        21        22        25        33     9      180.000000        0.075129         4    ;  uncertainty k = 0.097696
        21        22        25        34     9        0.000000       -4.178510         1    ;  uncertainty k = 0.410688
        21        22        25        34     9      180.000000       -2.187807         2    ;  uncertainty k = 0.398638
        21        22        25        34     9        0.000000        1.157619         3    ;  uncertainty k = 0.069416
        21        22        25        34     9      180.000000        0.075129         4    ;  uncertainty k = 0.097696
        22        23        24        30     9        0.000000       -0.446420         1    ;  uncertainty k = 0.389425
        22        23        24        30     9      180.000000       -0.446895         2    ;  uncertainty k = 0.443633
        22        23        24        30     9        0.000000        1.043482         3    ;  uncertainty k = 0.139130
        22        23        24        30     9      180.000000       -0.054508         4    ;  uncertainty k = 0.166266
        22        23        24        31     9        0.000000       -0.446420         1    ;  uncertainty k = 0.389425
        22        23        24        31     9      180.000000       -0.446895         2    ;  uncertainty k = 0.443633
        22        23        24        31     9        0.000000        1.043482         3    ;  uncertainty k = 0.139130
        22        23        24        31     9      180.000000       -0.054508         4    ;  uncertainty k = 0.166266
        23        22        21        26     9        0.000000       -4.951174         1    ;  uncertainty k = 1.276230
        23        22        21        26     9      180.000000       -0.772512         2    ;  uncertainty k = 0.594344
        23        22        21        26     9        0.000000        0.687582         3    ;  uncertainty k = 0.234878
        23        22        21        26     9      180.000000        0.165440         4    ;  uncertainty k = 0.126758
        23        22        21        27     9        0.000000       -4.951174         1    ;  uncertainty k = 1.276230
        23        22        21        27     9      180.000000       -0.772512         2    ;  uncertainty k = 0.594344
        23        22        21        27     9        0.000000        0.687582         3    ;  uncertainty k = 0.234878
        23        22        21        27     9      180.000000        0.165440         4    ;  uncertainty k = 0.126758
        23        22        25        32     9        0.000000       -4.259086         1    ;  uncertainty k = 0.974846
        23        22        25        32     9      180.000000       -2.027003         2    ;  uncertainty k = 0.417753
        23        22        25        32     9        0.000000        1.017651         3    ;  uncertainty k = 0.103023
        23        22        25        32     9      180.000000        0.065258         4    ;  uncertainty k = 0.091860
        23        22        25        33     9        0.000000       -4.259086         1    ;  uncertainty k = 0.974846
        23        22        25        33     9      180.000000       -2.027003         2    ;  uncertainty k = 0.417753
        23        22        25        33     9        0.000000        1.017651         3    ;  uncertainty k = 0.103023
        23        22        25        33     9      180.000000        0.065258         4    ;  uncertainty k = 0.091860
        23        22        25        34     9        0.000000       -4.259086         1    ;  uncertainty k = 0.974846
        23        22        25        34     9      180.000000       -2.027003         2    ;  uncertainty k = 0.417753
        23        22        25        34     9        0.000000        1.017651         3    ;  uncertainty k = 0.103023
        23        22        25        34     9      180.000000        0.065258         4    ;  uncertainty k = 0.091860
        24        23        22        25     9        0.000000       -2.366425         1    ;  uncertainty k = 0.799682
        24        23        22        25     9      180.000000       -0.858215         2    ;  uncertainty k = 0.575132
        24        23        22        25     9        0.000000        0.300582         3    ;  uncertainty k = 0.302529
        24        23        22        25     9      180.000000        0.326407         4    ;  uncertainty k = 0.081722
        25        22        21        26     9        0.000000       -2.503106         1    ;  uncertainty k = 0.610923
        25        22        21        26     9      180.000000       -1.207857         2    ;  uncertainty k = 0.461275
        25        22        21        26     9        0.000000        0.607046         3    ;  uncertainty k = 0.147323
        25        22        21        26     9      180.000000        0.178325         4    ;  uncertainty k = 0.088460
        25        22        21        27     9        0.000000       -2.503106         1    ;  uncertainty k = 0.610923
        25        22        21        27     9      180.000000       -1.207857         2    ;  uncertainty k = 0.461275
        25        22        21        27     9        0.000000        0.607046         3    ;  uncertainty k = 0.147323
        25        22        21        27     9      180.000000        0.178325         4    ;  uncertainty k = 0.088460
        25        22        23        28     9        0.000000       -3.143701         1    ;  uncertainty k = 0.576024
        25        22        23        28     9      180.000000       -1.381403         2    ;  uncertainty k = 0.223671
        25        22        23        28     9        0.000000        0.354530         3    ;  uncertainty k = 0.126408
        25        22        23        28     9      180.000000        0.148173         4    ;  uncertainty k = 0.137426
        25        22        23        29     9        0.000000       -3.143701         1    ;  uncertainty k = 0.576024
        25        22        23        29     9      180.000000       -1.381403         2    ;  uncertainty k = 0.223671
        25        22        23        29     9        0.000000        0.354530         3    ;  uncertainty k = 0.126408
        25        22        23        29     9      180.000000        0.148173         4    ;  uncertainty k = 0.137426
        28        23        24        30     9        0.000000       -0.690419         1    ;  uncertainty k = 0.249272
        28        23        24        30     9      180.000000        0.819889         2    ;  uncertainty k = 0.297922
        28        23        24        30     9        0.000000        0.232501         3    ;  uncertainty k = 0.086816
        28        23        24        30     9      180.000000       -0.277806         4    ;  uncertainty k = 0.067741
        28        23        24        31     9        0.000000       -0.690419         1    ;  uncertainty k = 0.249272
        28        23        24        31     9      180.000000        0.819889         2    ;  uncertainty k = 0.297922
        28        23        24        31     9        0.000000        0.232501         3    ;  uncertainty k = 0.086816
        28        23        24        31     9      180.000000       -0.277806         4    ;  uncertainty k = 0.067741
        29        23        24        30     9        0.000000       -0.690419         1    ;  uncertainty k = 0.249272
        29        23        24        30     9      180.000000        0.819889         2    ;  uncertainty k = 0.297922
        29        23        24        30     9        0.000000        0.232501         3    ;  uncertainty k = 0.086816
        29        23        24        30     9      180.000000       -0.277806         4    ;  uncertainty k = 0.067741
        29        23        24        31     9        0.000000       -0.690419         1    ;  uncertainty k = 0.249272
        29        23        24        31     9      180.000000        0.819889         2    ;  uncertainty k = 0.297922
        29        23        24        31     9        0.000000        0.232501         3    ;  uncertainty k = 0.086816
        29        23        24        31     9      180.000000       -0.277806         4    ;  uncertainty k = 0.067741
        35         7         6        40     9        0.000000        2.074967         1    ;  uncertainty k = 0.921198
        35         7         6        40     9      180.000000       -0.794571         2    ;  uncertainty k = 0.180952
        35         7         6        40     9        0.000000        0.466866         3    ;  uncertainty k = 0.273235
        35         7         6        40     9      180.000000        0.035537         4    ;  uncertainty k = 0.093276
        35         7         6        41     9        0.000000        2.074967         1    ;  uncertainty k = 0.921198
        35         7         6        41     9      180.000000       -0.794571         2    ;  uncertainty k = 0.180952
        35         7         6        41     9        0.000000        0.466866         3    ;  uncertainty k = 0.273235
        35         7         6        41     9      180.000000        0.035537         4    ;  uncertainty k = 0.093276
        35         7         8        43     9        0.000000        2.252951         1    ;  uncertainty k = 0.998081
        35         7         8        43     9      180.000000       -0.859965         2    ;  uncertainty k = 0.120364
        35         7         8        43     9        0.000000        0.534711         3    ;  uncertainty k = 0.219264
        35         7         8        43     9      180.000000        0.057172         4    ;  uncertainty k = 0.086080
        35         7         8        44     9        0.000000        2.252951         1    ;  uncertainty k = 0.998081
        35         7         8        44     9      180.000000       -0.859965         2    ;  uncertainty k = 0.120364
        35         7         8        44     9        0.000000        0.534711         3    ;  uncertainty k = 0.219264
        35         7         8        44     9      180.000000        0.057172         4    ;  uncertainty k = 0.086080
        35        37        38        47     9        0.000000        0.159650         1    ;  uncertainty k = 0.146342
        35        37        38        47     9      180.000000       -0.144813         2    ;  uncertainty k = 0.094204
        35        37        38        47     9        0.000000        0.215227         3    ;  uncertainty k = 0.050987
        35        37        38        47     9      180.000000        0.244118         4    ;  uncertainty k = 0.052779
        35        37        38        48     9        0.000000        0.159650         1    ;  uncertainty k = 0.146342
        35        37        38        48     9      180.000000       -0.144813         2    ;  uncertainty k = 0.094204
        35        37        38        48     9        0.000000        0.215227         3    ;  uncertainty k = 0.050987
        35        37        38        48     9      180.000000        0.244118         4    ;  uncertainty k = 0.052779
        35        37        38        49     9        0.000000        0.159650         1    ;  uncertainty k = 0.146342
        35        37        38        49     9      180.000000       -0.144813         2    ;  uncertainty k = 0.094204
        35        37        38        49     9        0.000000        0.215227         3    ;  uncertainty k = 0.050987
        35        37        38        49     9      180.000000        0.244118         4    ;  uncertainty k = 0.052779
        35        37        39        50     9        0.000000        0.159650         1    ;  uncertainty k = 0.146342
        35        37        39        50     9      180.000000       -0.144813         2    ;  uncertainty k = 0.094204
        35        37        39        50     9        0.000000        0.215227         3    ;  uncertainty k = 0.050987
        35        37        39        50     9      180.000000        0.244118         4    ;  uncertainty k = 0.052779
        35        37        39        51     9        0.000000        0.159650         1    ;  uncertainty k = 0.146342
        35        37        39        51     9      180.000000       -0.144813         2    ;  uncertainty k = 0.094204
        35        37        39        51     9        0.000000        0.215227         3    ;  uncertainty k = 0.050987
        35        37        39        51     9      180.000000        0.244118         4    ;  uncertainty k = 0.052779
        35        37        39        52     9        0.000000        0.159650         1    ;  uncertainty k = 0.146342
        35        37        39        52     9      180.000000       -0.144813         2    ;  uncertainty k = 0.094204
        35        37        39        52     9        0.000000        0.215227         3    ;  uncertainty k = 0.050987
        35        37        39        52     9      180.000000        0.244118         4    ;  uncertainty k = 0.052779
        36        35         7        42     9        0.000000       -0.646773         1    ;  uncertainty k = 0.397646
        36        35         7        42     9      180.000000        3.762065         2    ;  uncertainty k = 0.492695
        36        35         7        42     9        0.000000        1.483897         3    ;  uncertainty k = 0.235291
        36        35         7        42     9      180.000000       -0.025919         4    ;  uncertainty k = 0.096422
        36        35        37        38     9        0.000000        6.844605         1    ;  uncertainty k = 0.882211
        36        35        37        38     9      180.000000       19.790839         2    ;  uncertainty k = 0.105250
        36        35        37        38     9        0.000000       -0.220230         3    ;  uncertainty k = 0.161100
        36        35        37        38     9      180.000000       -1.123904         4    ;  uncertainty k = 0.136735
        36        35        37        39     9        0.000000        6.844605         1    ;  uncertainty k = 0.882211
        36        35        37        39     9      180.000000       19.790839         2    ;  uncertainty k = 0.105250
        36        35        37        39     9        0.000000       -0.220230         3    ;  uncertainty k = 0.161100
        36        35        37        39     9      180.000000       -1.123904         4    ;  uncertainty k = 0.136735
        37        35         7        42     9        0.000000       -0.975826         1    ;  uncertainty k = 0.419407
        37        35         7        42     9      180.000000        2.303974         2    ;  uncertainty k = 0.241164
        37        35         7        42     9        0.000000        0.361698         3    ;  uncertainty k = 0.116719
        37        35         7        42     9      180.000000        0.170218         4    ;  uncertainty k = 0.047482
        38        37        39        50     9        0.000000       -0.681994         1    ;  uncertainty k = 0.166187
        38        37        39        50     9      180.000000       -1.033629         2    ;  uncertainty k = 0.139918
        38        37        39        50     9        0.000000        1.312135         3    ;  uncertainty k = 0.057549
        38        37        39        50     9      180.000000        0.172025         4    ;  uncertainty k = 0.029064
        38        37        39        51     9        0.000000       -0.681994         1    ;  uncertainty k = 0.166187
        38        37        39        51     9      180.000000       -1.033629         2    ;  uncertainty k = 0.139918
        38        37        39        51     9        0.000000        1.312135         3    ;  uncertainty k = 0.057549
        38        37        39        51     9      180.000000        0.172025         4    ;  uncertainty k = 0.029064
        38        37        39        52     9        0.000000       -0.681994         1    ;  uncertainty k = 0.166187
        38        37        39        52     9      180.000000       -1.033629         2    ;  uncertainty k = 0.139918
        38        37        39        52     9        0.000000        1.312135         3    ;  uncertainty k = 0.057549
        38        37        39        52     9      180.000000        0.172025         4    ;  uncertainty k = 0.029064
        39        37        38        47     9        0.000000       -0.681994         1    ;  uncertainty k = 0.166187
        39        37        38        47     9      180.000000       -1.033629         2    ;  uncertainty k = 0.139918
        39        37        38        47     9        0.000000        1.312135         3    ;  uncertainty k = 0.057549
        39        37        38        47     9      180.000000        0.172025         4    ;  uncertainty k = 0.029064
        39        37        38        48     9        0.000000       -0.681994         1    ;  uncertainty k = 0.166187
        39        37        38        48     9      180.000000       -1.033629         2    ;  uncertainty k = 0.139918
        39        37        38        48     9        0.000000        1.312135         3    ;  uncertainty k = 0.057549
        39        37        38        48     9      180.000000        0.172025         4    ;  uncertainty k = 0.029064
        39        37        38        49     9        0.000000       -0.681994         1    ;  uncertainty k = 0.166187
        39        37        38        49     9      180.000000       -1.033629         2    ;  uncertainty k = 0.139918
        39        37        38        49     9        0.000000        1.312135         3    ;  uncertainty k = 0.057549
        39        37        38        49     9      180.000000        0.172025         4    ;  uncertainty k = 0.029064
        40         6         5        53     9        0.000000        1.226337         1    ;  uncertainty k = 0.333268
        40         6         5        53     9      180.000000       -0.558738         2    ;  uncertainty k = 0.229595
        40         6         5        53     9        0.000000       -0.052763         3    ;  uncertainty k = 0.147877
        40         6         5        53     9      180.000000        0.050691         4    ;  uncertainty k = 0.043442
        40         6         7        42     9        0.000000        1.275091         1    ;  uncertainty k = 0.308666
        40         6         7        42     9      180.000000       -0.191825         2    ;  uncertainty k = 0.161770
        40         6         7        42     9        0.000000       -0.005639         3    ;  uncertainty k = 0.106020
        40         6         7        42     9      180.000000        0.069270         4    ;  uncertainty k = 0.064132
        41         6         5        53     9        0.000000        1.226337         1    ;  uncertainty k = 0.333268
        41         6         5        53     9      180.000000       -0.558738         2    ;  uncertainty k = 0.229595
        41         6         5        53     9        0.000000       -0.052763         3    ;  uncertainty k = 0.147877
        41         6         5        53     9      180.000000        0.050691         4    ;  uncertainty k = 0.043442
        41         6         7        42     9        0.000000        1.275091         1    ;  uncertainty k = 0.308666
        41         6         7        42     9      180.000000       -0.191825         2    ;  uncertainty k = 0.161770
        41         6         7        42     9        0.000000       -0.005639         3    ;  uncertainty k = 0.106020
        41         6         7        42     9      180.000000        0.069270         4    ;  uncertainty k = 0.064132
        42         7         8        43     9        0.000000        1.375228         1    ;  uncertainty k = 0.292892
        42         7         8        43     9      180.000000       -0.112288         2    ;  uncertainty k = 0.227466
        42         7         8        43     9        0.000000       -0.024960         3    ;  uncertainty k = 0.142904
        42         7         8        43     9      180.000000        0.069958         4    ;  uncertainty k = 0.050452
        42         7         8        44     9        0.000000        1.375228         1    ;  uncertainty k = 0.292892
        42         7         8        44     9      180.000000       -0.112288         2    ;  uncertainty k = 0.227466
        42         7         8        44     9        0.000000       -0.024960         3    ;  uncertainty k = 0.142904
        42         7         8        44     9      180.000000        0.069958         4    ;  uncertainty k = 0.050452
        43         8         9        45     9        0.000000        2.326423         1    ;  uncertainty k = 0.676926
        43         8         9        45     9      180.000000       -0.090332         2    ;  uncertainty k = 0.159897
        43         8         9        45     9        0.000000        0.305999         3    ;  uncertainty k = 0.135712
        43         8         9        45     9      180.000000        0.130735         4    ;  uncertainty k = 0.038641
        43         8         9        46     9        0.000000        2.326423         1    ;  uncertainty k = 0.676926
        43         8         9        46     9      180.000000       -0.090332         2    ;  uncertainty k = 0.159897
        43         8         9        46     9        0.000000        0.305999         3    ;  uncertainty k = 0.135712
        43         8         9        46     9      180.000000        0.130735         4    ;  uncertainty k = 0.038641
        44         8         9        45     9        0.000000        2.326423         1    ;  uncertainty k = 0.676926
        44         8         9        45     9      180.000000       -0.090332         2    ;  uncertainty k = 0.159897
        44         8         9        45     9        0.000000        0.305999         3    ;  uncertainty k = 0.135712
        44         8         9        45     9      180.000000        0.130735         4    ;  uncertainty k = 0.038641
        44         8         9        46     9        0.000000        2.326423         1    ;  uncertainty k = 0.676926
        44         8         9        46     9      180.000000       -0.090332         2    ;  uncertainty k = 0.159897
        44         8         9        46     9        0.000000        0.305999         3    ;  uncertainty k = 0.135712
        44         8         9        46     9      180.000000        0.130735         4    ;  uncertainty k = 0.038641
        54        55        58        59     9        0.000000       -0.068862         1    ;  uncertainty k = 0.787075
        54        55        58        59     9      180.000000       15.938077         2    ;  uncertainty k = 0.716255
        54        55        58        59     9        0.000000       -7.002947         3    ;  uncertainty k = 1.993649
        54        55        58        59     9      180.000000        2.280292         4    ;  uncertainty k = 0.366230
        54        55        58        63     9        0.000000        0.102959         1    ;  uncertainty k = 0.470630
        54        55        58        63     9      180.000000       11.049870         2    ;  uncertainty k = 1.029207
        54        55        58        63     9        0.000000        0.916076         3    ;  uncertainty k = 0.505849
        54        55        58        63     9      180.000000        0.979182         4    ;  uncertainty k = 0.219825
        54        56        59        58     9        0.000000       -0.093980         1    ;  uncertainty k = 0.533550
        54        56        59        58     9      180.000000       13.269479         2    ;  uncertainty k = 0.888003
        54        56        59        58     9        0.000000       -9.055411         3    ;  uncertainty k = 2.223767
        54        56        59        58     9      180.000000        0.952413         4    ;  uncertainty k = 0.493384
        54        56        59        60     9        0.000000        0.996244         1    ;  uncertainty k = 1.615134
        54        56        59        60     9      180.000000        5.391990         2    ;  uncertainty k = 0.678039
        54        56        59        60     9        0.000000        0.500468         3    ;  uncertainty k = 0.430610
        54        56        59        60     9      180.000000        0.382192         4    ;  uncertainty k = 0.197755
        55        54        56        57     9        0.000000        3.712465         1    ;  uncertainty k = 2.556681
        55        54        56        57     9      180.000000       13.112174         2    ;  uncertainty k = 0.650712
        55        54        56        57     9        0.000000        1.786493         3    ;  uncertainty k = 0.812824
        55        54        56        57     9      180.000000       -0.202001         4    ;  uncertainty k = 0.258077
        55        54        56        59     9        0.000000       -0.162651         1    ;  uncertainty k = 1.075811
        55        54        56        59     9      180.000000       17.662885         2    ;  uncertainty k = 0.387476
        55        54        56        59     9        0.000000       -7.750602         3    ;  uncertainty k = 1.542195
        55        54        56        59     9      180.000000        1.060325         4    ;  uncertainty k = 0.709875
        55        58        59        56     9        0.000000       -0.105428         1    ;  uncertainty k = 0.677959
        55        58        59        56     9      180.000000       15.125681         2    ;  uncertainty k = 0.820195
        55        58        59        56     9        0.000000       -4.782270         3    ;  uncertainty k = 1.392695
        55        58        59        56     9      180.000000        1.539737         4    ;  uncertainty k = 0.811739
        55        58        59        60     9        0.000000       -0.269479         1    ;  uncertainty k = 0.221286
        55        58        59        60     9      180.000000        8.523818         2    ;  uncertainty k = 0.245835
        55        58        59        60     9        0.000000       -0.283945         3    ;  uncertainty k = 0.612301
        55        58        59        60     9      180.000000        1.434748         4    ;  uncertainty k = 0.328909
        55        58        63        62     9        0.000000        0.364544         1    ;  uncertainty k = 0.667672
        55        58        63        62     9      180.000000       10.926383         2    ;  uncertainty k = 0.270384
        55        58        63        62     9        0.000000        0.727207         3    ;  uncertainty k = 0.315274
        55        58        63        62     9      180.000000        1.268698         4    ;  uncertainty k = 0.186514
        55        58        63        67     9        0.000000       -0.129155         1    ;  uncertainty k = 0.926845
        55        58        63        67     9      180.000000        6.123662         2    ;  uncertainty k = 0.681410
        55        58        63        67     9        0.000000        1.219733         3    ;  uncertainty k = 0.358548
        55        58        63        67     9      180.000000        1.023328         4    ;  uncertainty k = 0.355828
        56        54        55        58     9        0.000000       -0.561336         1    ;  uncertainty k = 0.699797
        56        54        55        58     9      180.000000       23.634986         2    ;  uncertainty k = 0.268744
        56        54        55        58     9        0.000000       -6.118511         3    ;  uncertainty k = 1.108984
        56        54        55        58     9      180.000000        2.185177         4    ;  uncertainty k = 0.598859
        56        59        58        63     9        0.000000       -0.182276         1    ;  uncertainty k = 0.525743
        56        59        58        63     9      180.000000        7.822932         2    ;  uncertainty k = 0.437312
        56        59        58        63     9        0.000000       -0.023397         3    ;  uncertainty k = 0.633266
        56        59        58        63     9      180.000000        1.177733         4    ;  uncertainty k = 0.380318
        56        59        60        61     9        0.000000       -0.015758         1    ;  uncertainty k = 0.447267
        56        59        60        61     9      180.000000       10.326965         2    ;  uncertainty k = 0.271227
        56        59        60        61     9        0.000000        0.714566         3    ;  uncertainty k = 0.100017
        56        59        60        61     9      180.000000        1.197860         4    ;  uncertainty k = 0.280857
        56        59        60        64     9        0.000000        0.346909         1    ;  uncertainty k = 0.362999
        56        59        60        64     9      180.000000        5.754703         2    ;  uncertainty k = 0.334602
        56        59        60        64     9        0.000000        1.179773         3    ;  uncertainty k = 0.295742
        56        59        60        64     9      180.000000        0.763680         4    ;  uncertainty k = 0.303298
        57        56        59        58     9        0.000000        4.094676         1    ;  uncertainty k = 2.328795
        57        56        59        58     9      180.000000        6.466876         2    ;  uncertainty k = 0.926404
        57        56        59        58     9        0.000000        0.974614         3    ;  uncertainty k = 0.537430
        57        56        59        58     9      180.000000        0.200142         4    ;  uncertainty k = 0.262397
        57        56        59        60     9        0.000000        1.653452         1    ;  uncertainty k = 0.923145
        57        56        59        60     9      180.000000        1.491489         2    ;  uncertainty k = 0.843904
        57        56        59        60     9        0.000000        1.153402         3    ;  uncertainty k = 0.536563
        57        56        59        60     9      180.000000        0.196853         4    ;  uncertainty k = 0.219640
        58        59        60        61     9        0.000000       -0.102378         1    ;  uncertainty k = 0.468361
        58        59        60        61     9      180.000000       12.644513         2    ;  uncertainty k = 0.311832
        58        59        60        61     9        0.000000       -1.602291         3    ;  uncertainty k = 0.330599
        58        59        60        61     9      180.000000        0.690132         4    ;  uncertainty k = 0.244432
        58        59        60        64     9        0.000000        0.132983         1    ;  uncertainty k = 0.208430
        58        59        60        64     9      180.000000        7.075966         2    ;  uncertainty k = 0.910031
        58        59        60        64     9        0.000000        1.177580         3    ;  uncertainty k = 0.371178
        58        59        60        64     9      180.000000        1.082646         4    ;  uncertainty k = 0.353022
        58        63        62        61     9        0.000000       -0.077216         1    ;  uncertainty k = 0.211945
        58        63        62        61     9      180.000000       11.972555         2    ;  uncertainty k = 0.256166
        58        63        62        61     9        0.000000        0.299771         3    ;  uncertainty k = 0.468420
        58        63        62        61     9      180.000000        1.129046         4    ;  uncertainty k = 0.372775
        58        63        62        66     9        0.000000       -0.117866         1    ;  uncertainty k = 0.227338
        58        63        62        66     9      180.000000       12.819454         2    ;  uncertainty k = 0.653548
        58        63        62        66     9        0.000000        1.518672         3    ;  uncertainty k = 0.372237
        58        63        62        66     9      180.000000        1.420022         4    ;  uncertainty k = 0.343881
        59        58        63        62     9        0.000000       -0.007884         1    ;  uncertainty k = 0.417850
        59        58        63        62     9      180.000000       12.787394         2    ;  uncertainty k = 0.157183
        59        58        63        62     9        0.000000       -1.518202         3    ;  uncertainty k = 0.256114
        59        58        63        62     9      180.000000        0.733520         4    ;  uncertainty k = 0.123706
        59        58        63        67     9        0.000000        0.032646         1    ;  uncertainty k = 0.434459
        59        58        63        67     9      180.000000        6.455423         2    ;  uncertainty k = 0.929006
        59        58        63        67     9        0.000000        1.287404         3    ;  uncertainty k = 0.277742
        59        58        63        67     9      180.000000        1.281861         4    ;  uncertainty k = 0.381648
        59        60        61        62     9        0.000000        0.008872         1    ;  uncertainty k = 0.230480
        59        60        61        62     9      180.000000       16.489275         2    ;  uncertainty k = 0.279921
        59        60        61        62     9        0.000000       -0.496962         3    ;  uncertainty k = 0.552177
        59        60        61        62     9      180.000000        0.695014         4    ;  uncertainty k = 0.436615
        59        60        61        65     9        0.000000        0.050018         1    ;  uncertainty k = 0.246281
        59        60        61        65     9      180.000000       10.812773         2    ;  uncertainty k = 0.346233
        59        60        61        65     9        0.000000        1.466203         3    ;  uncertainty k = 0.301650
        59        60        61        65     9      180.000000        1.627649         4    ;  uncertainty k = 0.288793
        60        59        58        63     9        0.000000       -0.673125         1    ;  uncertainty k = 0.928755
        60        59        58        63     9      180.000000        7.277047         2    ;  uncertainty k = 0.697801
        60        59        58        63     9        0.000000        0.050133         3    ;  uncertainty k = 0.180109
        60        59        58        63     9      180.000000        0.973705         4    ;  uncertainty k = 0.368132
        60        61        62        63     9        0.000000       -0.075728         1    ;  uncertainty k = 0.262888
        60        61        62        63     9      180.000000        8.850943         2    ;  uncertainty k = 0.494242
        60        61        62        63     9        0.000000       -0.060261         3    ;  uncertainty k = 0.496428
        60        61        62        63     9      180.000000        1.181284         4    ;  uncertainty k = 0.317902
        60        61        62        66     9        0.000000        0.213794         1    ;  uncertainty k = 0.124496
        60        61        62        66     9      180.000000        8.694146         2    ;  uncertainty k = 0.702757
        60        61        62        66     9        0.000000        1.503166         3    ;  uncertainty k = 0.434747
        60        61        62        66     9      180.000000        1.623649         4    ;  uncertainty k = 0.199081
        61        62        63        67     9        0.000000        0.084088         1    ;  uncertainty k = 0.255499
        61        62        63        67     9      180.000000        6.948176         2    ;  uncertainty k = 0.479666
        61        62        63        67     9        0.000000        1.520712         3    ;  uncertainty k = 0.376231
        61        62        63        67     9      180.000000        1.609344         4    ;  uncertainty k = 0.147421
        62        61        60        64     9        0.000000        0.107026         1    ;  uncertainty k = 0.254650
        62        61        60        64     9      180.000000        8.633079         2    ;  uncertainty k = 0.565031
        62        61        60        64     9        0.000000        1.669471         3    ;  uncertainty k = 0.276285
        62        61        60        64     9      180.000000        1.920628         4    ;  uncertainty k = 0.335689
        63        62        61        65     9        0.000000       -0.133042         1    ;  uncertainty k = 0.157715
        63        62        61        65     9      180.000000        5.563215         2    ;  uncertainty k = 0.593211
        63        62        61        65     9        0.000000        1.296238         3    ;  uncertainty k = 0.285239
        63        62        61        65     9      180.000000        1.429892         4    ;  uncertainty k = 0.178821
        64        60        61        65     9        0.000000        0.018184         1    ;  uncertainty k = 0.375293
        64        60        61        65     9      180.000000        7.642535         2    ;  uncertainty k = 0.306883
        64        60        61        65     9        0.000000       -0.244082         3    ;  uncertainty k = 0.207918
        64        60        61        65     9      180.000000        0.097923         4    ;  uncertainty k = 0.168266
        65        61        62        66     9        0.000000       -0.047052         1    ;  uncertainty k = 0.128929
        65        61        62        66     9      180.000000        7.100952         2    ;  uncertainty k = 0.296215
        65        61        62        66     9        0.000000        0.666372         3    ;  uncertainty k = 0.338773
        65        61        62        66     9      180.000000        0.926947         4    ;  uncertainty k = 0.185194
        66        62        63        67     9        0.000000       -0.237157         1    ;  uncertainty k = 0.367204
        66        62        63        67     9      180.000000        8.117655         2    ;  uncertainty k = 0.391969
        66        62        63        67     9        0.000000        0.771693         3    ;  uncertainty k = 0.260697
        66        62        63        67     9      180.000000        1.077085         4    ;  uncertainty k = 0.278699

[ dihedrals ] ; impropers
;       ai        aj        ak        al funct           phase               k        pn
         1         2         4        54     4      180.000000       48.504728         2    ;  uncertainty k = 0.055991
         1         4        54         2     4      180.000000       48.504728         2    ;  uncertainty k = 0.055991
         1        54         2         4     4      180.000000       48.504728         2    ;  uncertainty k = 0.055991
        11        10        12        13     4      180.000000       49.476644         2    ;  uncertainty k = 0.014914
        11        12        13        10     4      180.000000       49.476644         2    ;  uncertainty k = 0.014914
        11        13        10        12     4      180.000000       49.476644         2    ;  uncertainty k = 0.014914
        12        11        14        15     4      180.000000        4.762177         2    ;  uncertainty k = 0.485670
        12        14        15        11     4      180.000000        4.762177         2    ;  uncertainty k = 0.485670
        12        15        11        14     4      180.000000        4.762177         2    ;  uncertainty k = 0.485670
        19        14        20        24     4      180.000000       10.302524         2    ;  uncertainty k = 0.235813
        19        20        24        14     4      180.000000       10.302524         2    ;  uncertainty k = 0.235813
        19        24        14        20     4      180.000000       10.302524         2    ;  uncertainty k = 0.235813
        20        15        19        21     4      180.000000        2.894551         2    ;  uncertainty k = 0.672593
        20        19        21        15     4      180.000000        2.894551         2    ;  uncertainty k = 0.672593
        20        21        15        19     4      180.000000        2.894551         2    ;  uncertainty k = 0.672593
        35         7        36        37     4      180.000000       51.316640         2    ;  uncertainty k = 0.028239
        35        36        37         7     4      180.000000       51.316640         2    ;  uncertainty k = 0.028239
        35        37         7        36     4      180.000000       51.316640         2    ;  uncertainty k = 0.028239
        54         1        55        56     4      180.000000        7.518446         2    ;  uncertainty k = 0.281777
        54        55        56         1     4      180.000000        7.518446         2    ;  uncertainty k = 0.281777
        54        56         1        55     4      180.000000        7.518446         2    ;  uncertainty k = 0.281777
        58        55        59        63     4      180.000000        0.614362         2    ;  uncertainty k = 0.627349
        58        59        63        55     4      180.000000        0.614362         2    ;  uncertainty k = 0.627349
        58        63        55        59     4      180.000000        0.614362         2    ;  uncertainty k = 0.627349
        59        56        58        60     4      180.000000        0.088290         2    ;  uncertainty k = 0.197421
        59        58        60        56     4      180.000000        0.088290         2    ;  uncertainty k = 0.197421
        59        60        56        58     4      180.000000        0.088290         2    ;  uncertainty k = 0.197421
        60        59        61        64     4      180.000000        3.330330         2    ;  uncertainty k = 0.254617
        60        61        64        59     4      180.000000        3.330330         2    ;  uncertainty k = 0.254617
        60        64        59        61     4      180.000000        3.330330         2    ;  uncertainty k = 0.254617
        61        60        62        65     4      180.000000        3.309538         2    ;  uncertainty k = 0.182630
        61        62        65        60     4      180.000000        3.309538         2    ;  uncertainty k = 0.182630
        61        65        60        62     4      180.000000        3.309538         2    ;  uncertainty k = 0.182630
        62        61        63        66     4      180.000000       11.881861         2    ;  uncertainty k = 0.037792
        62        63        66        61     4      180.000000       11.881861         2    ;  uncertainty k = 0.037792
        62        66        61        63     4      180.000000       11.881861         2    ;  uncertainty k = 0.037792
        63        58        62        67     4      180.000000        3.466770         2    ;  uncertainty k = 0.272588
        63        62        67        58     4      180.000000        3.466770         2    ;  uncertainty k = 0.272588
        63        67        58        62     4      180.000000        3.466770         2    ;  uncertainty k = 0.272588

[ pairs ]
;       ai        aj funct
         1         5     1
         1         9     1
         1        17     1
         1        57     1
         1        58     1
         1        59     1
         2         6     1
         2         8     1
         2        10     1
         2        45     1
         2        46     1
         2        53     1
         2        55     1
         2        56     1
         3         4     1
         3         7     1
         3        11     1
         3        18     1
         3        40     1
         3        41     1
         3        43     1
         3        44     1
         3        54     1
         4        16     1
         4        55     1
         4        56     1
         5         8     1
         5        12     1
         5        13     1
         5        16     1
         5        35     1
         5        42     1
         5        45     1
         5        46     1
         6         9     1
         6        11     1
         6        17     1
         6        18     1
         6        36     1
         6        37     1
         6        43     1
         6        44     1
         7        10     1
         7        38     1
         7        39     1
         7        45     1
         7        46     1
         7        53     1
         8        17     1
         8        36     1
         8        37     1
         8        40     1
         8        41     1
         9        10     1
         9        16     1
         9        35     1
         9        42     1
         9        53     1
        10        14     1
        10        15     1
        10        17     1
        10        40     1
        10        41     1
        11        19     1
        11        20     1
        11        53     1
        12        18     1
        12        21     1
        12        24     1
        13        14     1
        13        15     1
        13        18     1
        14        21     1
        14        23     1
        14        30     1
        14        31     1
        15        22     1
        15        24     1
        15        26     1
        15        27     1
        16        17     1
        16        54     1
        17        45     1
        17        46     1
        17        53     1
        18        53     1
        19        22     1
        19        26     1
        19        27     1
        19        28     1
        19        29     1
        20        23     1
        20        25     1
        20        30     1
        20        31     1
        21        24     1
        21        28     1
        21        29     1
        21        32     1
        21        33     1
        21        34     1
        22        30     1
        22        31     1
        23        26     1
        23        27     1
        23        32     1
        23        33     1
        23        34     1
        24        25     1
        25        26     1
        25        27     1
        25        28     1
        25        29     1
        28        30     1
        28        31     1
        29        30     1
        29        31     1
        35        40     1
        35        41     1
        35        43     1
        35        44     1
        35        47     1
        35        48     1
        35        49     1
        35        50     1
        35        51     1
        35        52     1
        36        38     1
        36        39     1
        36        42     1
        37        42     1
        38        50     1
        38        51     1
        38        52     1
        39        47     1
        39        48     1
        39        49     1
        40        42     1
        40        53     1
        41        42     1
        41        53     1
        42        43     1
        42        44     1
        43        45     1
        43        46     1
        44        45     1
        44        46     1
        54        60     1
        54        63     1
        55        57     1
        55        60     1
        55        62     1
        55        67     1
        56        61     1
        56        63     1
        56        64     1
        57        58     1
        57        60     1
        58        61     1
        58        64     1
        58        66     1
        59        62     1
        59        65     1
        59        67     1
        60        63     1
        60        66     1
        61        67     1
        62        64     1
        63        65     1
        64        65     1
        65        66     1
        66        67     1
