; ITP file created by ByteFF-joint-25, 2025-07-14 11:37:44.182758

[ atomtypes ]
;name           bonded.type        at.num        mass        charge   ptype           sigma         epsilon
 c0bf                                   6      0.0000       0.00000       A     3.31506e-01     4.12472e-01    ;  uncertainty sigma = 0.000009, epsilon = 0.001432
 n1bf                                   7      0.0000       0.00000       A     3.27043e-01     4.89121e-01    ;  uncertainty sigma = 0.000025, epsilon = 0.001795
 c2bf                                   6      0.0000       0.00000       A     3.39788e-01     4.50841e-01    ;  uncertainty sigma = 0.000020, epsilon = 0.000913
 o3bf                                   8      0.0000       0.00000       A     3.04821e-01     6.12720e-01    ;  uncertainty sigma = 0.000018, epsilon = 0.001413
 c4bf                                   6      0.0000       0.00000       A     3.39779e-01     4.50691e-01    ;  uncertainty sigma = 0.000021, epsilon = 0.001071
 c5bf                                   6      0.0000       0.00000       A     3.39785e-01     4.51177e-01    ;  uncertainty sigma = 0.000013, epsilon = 0.000568
 c6bf                                   6      0.0000       0.00000       A     3.39788e-01     4.50813e-01    ;  uncertainty sigma = 0.000005, epsilon = 0.001015
 c7bf                                   6      0.0000       0.00000       A     3.39784e-01     4.51089e-01    ;  uncertainty sigma = 0.000005, epsilon = 0.000646
 c8bf                                   6      0.0000       0.00000       A     3.39763e-01     4.50989e-01    ;  uncertainty sigma = 0.000009, epsilon = 0.000663
 n9bf                                   7      0.0000       0.00000       A     3.27037e-01     4.89849e-01    ;  uncertainty sigma = 0.000029, epsilon = 0.003194
 c10bf                                  6      0.0000       0.00000       A     3.31529e-01     4.12690e-01    ;  uncertainty sigma = 0.000018, epsilon = 0.001128
 c11bf                                  6      0.0000       0.00000       A     3.31525e-01     4.13652e-01    ;  uncertainty sigma = 0.000013, epsilon = 0.001225
 o12bf                                  8      0.0000       0.00000       A     3.04890e-01     6.12219e-01    ;  uncertainty sigma = 0.000024, epsilon = 0.000874
 n13bf                                  7      0.0000       0.00000       A     3.38354e-01     3.93161e-01    ;  uncertainty sigma = 0.000020, epsilon = 0.001245
 s14bf                                 16      0.0000       0.00000       A     3.53288e-01     1.18179e+00    ;  uncertainty sigma = 0.000032, epsilon = 0.002346
 h15bf                                  1      0.0000       0.00000       A     1.10669e-01     4.16163e-02    ;  uncertainty sigma = 0.000085, epsilon = 0.000806
 h16bf                                  1      0.0000       0.00000       A     2.42171e-01     8.67682e-02    ;  uncertainty sigma = 0.000031, epsilon = 0.001303
 h17bf                                  1      0.0000       0.00000       A     1.10666e-01     4.15404e-02    ;  uncertainty sigma = 0.000113, epsilon = 0.000907
 c18bf                                  6      0.0000       0.00000       A     3.31531e-01     4.13284e-01    ;  uncertainty sigma = 0.000022, epsilon = 0.000692
 c19bf                                  6      0.0000       0.00000       A     3.31510e-01     4.13232e-01    ;  uncertainty sigma = 0.000021, epsilon = 0.000971
 c20bf                                  6      0.0000       0.00000       A     3.39772e-01     4.51291e-01    ;  uncertainty sigma = 0.000007, epsilon = 0.001369
 n21bf                                  7      0.0000       0.00000       A     3.36491e-01     3.58344e-01    ;  uncertainty sigma = 0.000019, epsilon = 0.001758
 c22bf                                  6      0.0000       0.00000       A     3.39770e-01     4.51225e-01    ;  uncertainty sigma = 0.000009, epsilon = 0.000671
 c23bf                                  6      0.0000       0.00000       A     3.39762e-01     4.51164e-01    ;  uncertainty sigma = 0.000008, epsilon = 0.001424
 c24bf                                  6      0.0000       0.00000       A     3.39770e-01     4.51318e-01    ;  uncertainty sigma = 0.000003, epsilon = 0.000740
 h25bf                                  1      0.0000       0.00000       A     2.42250e-01     8.62902e-02    ;  uncertainty sigma = 0.000037, epsilon = 0.000964
 h26bf                                  1      0.0000       0.00000       A     2.42250e-01     8.62902e-02    ;  uncertainty sigma = 0.000037, epsilon = 0.000964
 h27bf                                  1      0.0000       0.00000       A     2.42218e-01     8.69005e-02    ;  uncertainty sigma = 0.000021, epsilon = 0.000739
 h28bf                                  1      0.0000       0.00000       A     2.42218e-01     8.69005e-02    ;  uncertainty sigma = 0.000021, epsilon = 0.000739
 h29bf                                  1      0.0000       0.00000       A     2.60015e-01     8.68230e-02    ;  uncertainty sigma = 0.000020, epsilon = 0.000739
 h30bf                                  1      0.0000       0.00000       A     2.60015e-01     8.68230e-02    ;  uncertainty sigma = 0.000020, epsilon = 0.000739
 h31bf                                  1      0.0000       0.00000       A     2.42198e-01     8.68693e-02    ;  uncertainty sigma = 0.000014, epsilon = 0.000543
 h32bf                                  1      0.0000       0.00000       A     2.42198e-01     8.68693e-02    ;  uncertainty sigma = 0.000014, epsilon = 0.000543
 h33bf                                  1      0.0000       0.00000       A     2.42198e-01     8.68693e-02    ;  uncertainty sigma = 0.000014, epsilon = 0.000543
 c34bf                                  6      0.0000       0.00000       A     3.31545e-01     4.13066e-01    ;  uncertainty sigma = 0.000011, epsilon = 0.001034
 o35bf                                  8      0.0000       0.00000       A     3.04819e-01     6.12467e-01    ;  uncertainty sigma = 0.000013, epsilon = 0.000996
 n36bf                                  7      0.0000       0.00000       A     3.18136e-01     6.84509e-01    ;  uncertainty sigma = 0.000019, epsilon = 0.001339
 c37bf                                  6      0.0000       0.00000       A     3.39777e-01     4.50876e-01    ;  uncertainty sigma = 0.000006, epsilon = 0.000504
 c38bf                                  6      0.0000       0.00000       A     3.39777e-01     4.50876e-01    ;  uncertainty sigma = 0.000006, epsilon = 0.000504
 h39bf                                  1      0.0000       0.00000       A     2.60016e-01     8.65219e-02    ;  uncertainty sigma = 0.000021, epsilon = 0.000613
 h40bf                                  1      0.0000       0.00000       A     2.60016e-01     8.65219e-02    ;  uncertainty sigma = 0.000021, epsilon = 0.000613
 h41bf                                  1      0.0000       0.00000       A     2.60030e-01     8.70270e-02    ;  uncertainty sigma = 0.000011, epsilon = 0.000538
 h42bf                                  1      0.0000       0.00000       A     2.60020e-01     8.66352e-02    ;  uncertainty sigma = 0.000016, epsilon = 0.000625
 h43bf                                  1      0.0000       0.00000       A     2.60020e-01     8.66352e-02    ;  uncertainty sigma = 0.000016, epsilon = 0.000625
 h44bf                                  1      0.0000       0.00000       A     2.60024e-01     8.67210e-02    ;  uncertainty sigma = 0.000008, epsilon = 0.000629
 h45bf                                  1      0.0000       0.00000       A     2.60024e-01     8.67210e-02    ;  uncertainty sigma = 0.000008, epsilon = 0.000629
 h46bf                                  1      0.0000       0.00000       A     2.42196e-01     8.67627e-02    ;  uncertainty sigma = 0.000011, epsilon = 0.000510
 h47bf                                  1      0.0000       0.00000       A     2.42196e-01     8.67627e-02    ;  uncertainty sigma = 0.000011, epsilon = 0.000510
 h48bf                                  1      0.0000       0.00000       A     2.42196e-01     8.67627e-02    ;  uncertainty sigma = 0.000011, epsilon = 0.000510
 h49bf                                  1      0.0000       0.00000       A     2.42196e-01     8.67627e-02    ;  uncertainty sigma = 0.000011, epsilon = 0.000510
 h50bf                                  1      0.0000       0.00000       A     2.42196e-01     8.67627e-02    ;  uncertainty sigma = 0.000011, epsilon = 0.000510
 h51bf                                  1      0.0000       0.00000       A     2.42196e-01     8.67627e-02    ;  uncertainty sigma = 0.000011, epsilon = 0.000510
 h52bf                                  1      0.0000       0.00000       A     2.42144e-01     8.68216e-02    ;  uncertainty sigma = 0.000035, epsilon = 0.001353
 c53bf                                  6      0.0000       0.00000       A     3.31515e-01     4.12898e-01    ;  uncertainty sigma = 0.000019, epsilon = 0.000368
 c54bf                                  6      0.0000       0.00000       A     3.31546e-01     4.13192e-01    ;  uncertainty sigma = 0.000006, epsilon = 0.000460
 n55bf                                  7      0.0000       0.00000       A     3.20603e-01     8.53820e-01    ;  uncertainty sigma = 0.000024, epsilon = 0.001387
 h56bf                                  1      0.0000       0.00000       A     2.62553e-01     6.72063e-02    ;  uncertainty sigma = 0.000029, epsilon = 0.000622
 h57bf                                  1      0.0000       0.00000       A     1.10695e-01     4.09132e-02    ;  uncertainty sigma = 0.000094, epsilon = 0.000943
 c58bf                                  6      0.0000       0.00000       A     3.31537e-01     4.13253e-01    ;  uncertainty sigma = 0.000009, epsilon = 0.000930
 c59bf                                  6      0.0000       0.00000       A     3.31521e-01     4.13681e-01    ;  uncertainty sigma = 0.000012, epsilon = 0.001473
 c60bf                                  6      0.0000       0.00000       A     3.31515e-01     4.13283e-01    ;  uncertainty sigma = 0.000006, epsilon = 0.000428
 c61bf                                  6      0.0000       0.00000       A     3.31522e-01     4.13408e-01    ;  uncertainty sigma = 0.000007, epsilon = 0.000498
 c62bf                                  6      0.0000       0.00000       A     3.31525e-01     4.13078e-01    ;  uncertainty sigma = 0.000004, epsilon = 0.000864
 c63bf                                  6      0.0000       0.00000       A     3.31521e-01     4.13345e-01    ;  uncertainty sigma = 0.000012, epsilon = 0.000711
 f64bf                                  9      0.0000       0.00000       A     3.03438e-01     3.47833e-01    ;  uncertainty sigma = 0.000029, epsilon = 0.000722
 h65bf                                  1      0.0000       0.00000       A     2.62566e-01     6.72085e-02    ;  uncertainty sigma = 0.000010, epsilon = 0.000525
 cl66bf                                17      0.0000       0.00000       A     3.46596e-01     1.10410e+00    ;  uncertainty sigma = 0.000016, epsilon = 0.000704
 h67bf                                  1      0.0000       0.00000       A     2.62562e-01     6.69822e-02    ;  uncertainty sigma = 0.000015, epsilon = 0.000568

[ moleculetype ]
;name             nrexcl
 MOL                   3

[ atoms ]
;       nr            type      resi   res      atom      cgnr      charge          mass ; qtot
         1            c0bf         1   UNL        c0         1     0.69450       12.0110 ; qtot    0.695
         2            n1bf         1   UNL        n1         2    -0.55873       14.0070 ; qtot    0.136
         3            c2bf         1   UNL        c2         3     0.09709       12.0110 ; qtot    0.233
         4            o3bf         1   UNL        o3         4    -0.59925       15.9990 ; qtot   -0.366
         5            c4bf         1   UNL        c4         5     0.10478       12.0110 ; qtot   -0.262
         6            c5bf         1   UNL        c5         6    -0.07514       12.0110 ; qtot   -0.337
         7            c6bf         1   UNL        c6         7    -0.13250       12.0110 ; qtot   -0.469
         8            c7bf         1   UNL        c7         8    -0.06578       12.0110 ; qtot   -0.535
         9            c8bf         1   UNL        c8         9    -0.08745       12.0110 ; qtot   -0.622
        10            n9bf         1   UNL        n9        10    -0.55643       14.0070 ; qtot   -1.179
        11           c10bf         1   UNL       c10        11     0.59414       12.0110 ; qtot   -0.585
        12           c11bf         1   UNL       c11        12     0.37509       12.0110 ; qtot   -0.210
        13           o12bf         1   UNL       o12        13    -0.57698       15.9990 ; qtot   -0.787
        14           n13bf         1   UNL       n13        14    -0.60853       14.0070 ; qtot   -1.395
        15           s14bf         1   UNL       s14        15    -0.11954       32.0670 ; qtot   -1.515
        16           h15bf         1   UNL       h15        16     0.31726        1.0080 ; qtot   -1.197
        17           h16bf         1   UNL       h16        17     0.07698        1.0080 ; qtot   -1.120
        18           h17bf         1   UNL       h17        18     0.33735        1.0080 ; qtot   -0.783
        19           c18bf         1   UNL       c18        19     0.34886       12.0110 ; qtot   -0.434
        20           c19bf         1   UNL       c19        20    -0.15290       12.0110 ; qtot   -0.587
        21           c20bf         1   UNL       c20        21     0.24342       12.0110 ; qtot   -0.344
        22           n21bf         1   UNL       n21        22    -0.71265       14.0070 ; qtot   -1.056
        23           c22bf         1   UNL       c22        23     0.15896       12.0110 ; qtot   -0.897
        24           c23bf         1   UNL       c23        24    -0.11292       12.0110 ; qtot   -1.010
        25           c24bf         1   UNL       c24        25     0.14692       12.0110 ; qtot   -0.863
        26           h25bf         1   UNL       h25        26     0.05218        1.0080 ; qtot   -0.811
        27           h26bf         1   UNL       h26        27     0.05218        1.0080 ; qtot   -0.759
        28           h27bf         1   UNL       h27        28     0.04542        1.0080 ; qtot   -0.714
        29           h28bf         1   UNL       h28        29     0.04542        1.0080 ; qtot   -0.668
        30           h29bf         1   UNL       h29        30     0.06419        1.0080 ; qtot   -0.604
        31           h30bf         1   UNL       h30        31     0.06419        1.0080 ; qtot   -0.540
        32           h31bf         1   UNL       h31        32     0.03530        1.0080 ; qtot   -0.505
        33           h32bf         1   UNL       h32        33     0.03530        1.0080 ; qtot   -0.469
        34           h33bf         1   UNL       h33        34     0.03530        1.0080 ; qtot   -0.434
        35           c34bf         1   UNL       c34        35     0.67193       12.0110 ; qtot    0.238
        36           o35bf         1   UNL       o35        36    -0.60797       15.9990 ; qtot   -0.370
        37           n36bf         1   UNL       n36        37    -0.49029       14.0070 ; qtot   -0.860
        38           c37bf         1   UNL       c37        38     0.08466       12.0110 ; qtot   -0.776
        39           c38bf         1   UNL       c38        39     0.08466       12.0110 ; qtot   -0.691
        40           h39bf         1   UNL       h39        40     0.06150        1.0080 ; qtot   -0.629
        41           h40bf         1   UNL       h40        41     0.06150        1.0080 ; qtot   -0.568
        42           h41bf         1   UNL       h41        42     0.06422        1.0080 ; qtot   -0.504
        43           h42bf         1   UNL       h42        43     0.05208        1.0080 ; qtot   -0.452
        44           h43bf         1   UNL       h43        44     0.05208        1.0080 ; qtot   -0.400
        45           h44bf         1   UNL       h44        45     0.05526        1.0080 ; qtot   -0.344
        46           h45bf         1   UNL       h45        46     0.05526        1.0080 ; qtot   -0.289
        47           h46bf         1   UNL       h46        47     0.04383        1.0080 ; qtot   -0.245
        48           h47bf         1   UNL       h47        48     0.04383        1.0080 ; qtot   -0.201
        49           h48bf         1   UNL       h48        49     0.04383        1.0080 ; qtot   -0.158
        50           h49bf         1   UNL       h49        50     0.04383        1.0080 ; qtot   -0.114
        51           h50bf         1   UNL       h50        51     0.04383        1.0080 ; qtot   -0.070
        52           h51bf         1   UNL       h51        52     0.04383        1.0080 ; qtot   -0.026
        53           h52bf         1   UNL       h52        53     0.07881        1.0080 ; qtot    0.053
        54           c53bf         1   UNL       c53        54    -0.13214       12.0110 ; qtot   -0.079
        55           c54bf         1   UNL       c54        55    -0.12019       12.0110 ; qtot   -0.200
        56           n55bf         1   UNL       n55        56    -0.14046       14.0070 ; qtot   -0.340
        57           h56bf         1   UNL       h56        57     0.16750        1.0080 ; qtot   -0.173
        58           h57bf         1   UNL       h57        58     0.32544        1.0080 ; qtot    0.153
        59           c58bf         1   UNL       c58        59    -0.08783       12.0110 ; qtot    0.065
        60           c59bf         1   UNL       c59        60    -0.06642       12.0110 ; qtot   -0.001
        61           c60bf         1   UNL       c60        61     0.12412       12.0110 ; qtot    0.123
        62           c61bf         1   UNL       c61        62    -0.14039       12.0110 ; qtot   -0.018
        63           c62bf         1   UNL       c62        63     0.02873       12.0110 ; qtot    0.011
        64           c63bf         1   UNL       c63        64    -0.06987       12.0110 ; qtot   -0.059
        65           f64bf         1   UNL       f64        65    -0.14526       18.9980 ; qtot   -0.204
        66           h65bf         1   UNL       h65        66     0.16761        1.0080 ; qtot   -0.036
        67          cl66bf         1   UNL      cl66        67    -0.11836       35.4530 ; qtot   -0.155
        68           h67bf         1   UNL       h67        68     0.15481        1.0080 ; qtot   -0.000

[ bonds ]
;       ai        aj funct               r               k
         1         2     1        0.137253   301178.283691    ;  uncertainty r = 0.000084, k = 4.174187
         1         4     1        0.123949   774807.645508    ;  uncertainty r = 0.000087, k = 12.935403
         1        54     1        0.147998   271182.292871    ;  uncertainty r = 0.000037, k = 9.953817
         2         3     1        0.145939   247498.334912    ;  uncertainty r = 0.000066, k = 9.250878
         2        16     1        0.101447   412255.158594    ;  uncertainty r = 0.000074, k = 3.808037
         3         5     1        0.154139   193161.035400    ;  uncertainty r = 0.000236, k = 7.190291
         3         9     1        0.153518   200048.036279    ;  uncertainty r = 0.000083, k = 7.067665
         3        17     1        0.109367   306086.516113    ;  uncertainty r = 0.000048, k = 3.200896
         5         6     1        0.153459   198491.779297    ;  uncertainty r = 0.000127, k = 5.264538
         5        10     1        0.145729   238727.461475    ;  uncertainty r = 0.000067, k = 15.790014
         5        53     1        0.109360   306487.525342    ;  uncertainty r = 0.000054, k = 3.376958
         6         7     1        0.153721   199006.850024    ;  uncertainty r = 0.000168, k = 6.848027
         6        40     1        0.109526   310433.851465    ;  uncertainty r = 0.000043, k = 0.875064
         6        41     1        0.109526   310433.851465    ;  uncertainty r = 0.000043, k = 0.875064
         7         8     1        0.153975   202217.337109    ;  uncertainty r = 0.000087, k = 2.573046
         7        35     1        0.153156   206143.680444    ;  uncertainty r = 0.000070, k = 12.443492
         7        42     1        0.109633   309151.735352    ;  uncertainty r = 0.000051, k = 6.503762
         8         9     1        0.153315   207912.240186    ;  uncertainty r = 0.000063, k = 5.403351
         8        43     1        0.109602   308125.501074    ;  uncertainty r = 0.000021, k = 1.819146
         8        44     1        0.109602   308125.501074    ;  uncertainty r = 0.000021, k = 1.819146
         9        45     1        0.109620   309910.953613    ;  uncertainty r = 0.000024, k = 1.009960
         9        46     1        0.109620   309910.953613    ;  uncertainty r = 0.000024, k = 1.009960
        10        11     1        0.136254   291452.475586    ;  uncertainty r = 0.000129, k = 17.867731
        10        18     1        0.101616   410581.507520    ;  uncertainty r = 0.000093, k = 3.750123
        11        12     1        0.147883   259563.418848    ;  uncertainty r = 0.000125, k = 27.680344
        11        13     1        0.123538   703630.001367    ;  uncertainty r = 0.000115, k = 12.098945
        12        14     1        0.130310   434161.095312    ;  uncertainty r = 0.000085, k = 15.053236
        12        15     1        0.175563   155788.944214    ;  uncertainty r = 0.000188, k = 10.470577
        14        19     1        0.137602   299978.345996    ;  uncertainty r = 0.000211, k = 8.739575
        15        20     1        0.173396   184345.625244    ;  uncertainty r = 0.000110, k = 8.530767
        19        20     1        0.137286   397473.794482    ;  uncertainty r = 0.000034, k = 9.608965
        19        24     1        0.149948   244144.622949    ;  uncertainty r = 0.000108, k = 7.193396
        20        21     1        0.150719   237383.826465    ;  uncertainty r = 0.000089, k = 11.691948
        21        22     1        0.146397   258698.068359    ;  uncertainty r = 0.000045, k = 12.802743
        21        26     1        0.110180   303656.992139    ;  uncertainty r = 0.000048, k = 3.959665
        21        27     1        0.110180   303656.992139    ;  uncertainty r = 0.000048, k = 3.959665
        22        23     1        0.146774   246527.975830    ;  uncertainty r = 0.000088, k = 8.191406
        22        25     1        0.145874   240551.449512    ;  uncertainty r = 0.000055, k = 4.989744
        23        24     1        0.153862   211171.503149    ;  uncertainty r = 0.000061, k = 10.297044
        23        28     1        0.109933   305388.127246    ;  uncertainty r = 0.000023, k = 3.768152
        23        29     1        0.109933   305388.127246    ;  uncertainty r = 0.000023, k = 3.768152
        24        30     1        0.109729   310887.467139    ;  uncertainty r = 0.000009, k = 2.383701
        24        31     1        0.109729   310887.467139    ;  uncertainty r = 0.000009, k = 2.383701
        25        32     1        0.109858   306972.960254    ;  uncertainty r = 0.000009, k = 1.032628
        25        33     1        0.109858   306972.960254    ;  uncertainty r = 0.000009, k = 1.032628
        25        34     1        0.109858   306972.960254    ;  uncertainty r = 0.000009, k = 1.032628
        35        36     1        0.123614   736987.492969    ;  uncertainty r = 0.000035, k = 11.451192
        35        37     1        0.137582   365085.461719    ;  uncertainty r = 0.000056, k = 20.353979
        37        38     1        0.145904   250764.556738    ;  uncertainty r = 0.000013, k = 6.211512
        37        39     1        0.145904   250764.556738    ;  uncertainty r = 0.000013, k = 6.211512
        38        47     1        0.109437   311080.731982    ;  uncertainty r = 0.000014, k = 1.257584
        38        48     1        0.109437   311080.731982    ;  uncertainty r = 0.000014, k = 1.257584
        38        49     1        0.109437   311080.731982    ;  uncertainty r = 0.000014, k = 1.257584
        39        50     1        0.109437   311080.731982    ;  uncertainty r = 0.000014, k = 1.257584
        39        51     1        0.109437   311080.731982    ;  uncertainty r = 0.000014, k = 1.257584
        39        52     1        0.109437   311080.731982    ;  uncertainty r = 0.000014, k = 1.257584
        54        55     1        0.138359   415430.085254    ;  uncertainty r = 0.000063, k = 10.779601
        54        56     1        0.138899   305340.168555    ;  uncertainty r = 0.000146, k = 16.412796
        55        57     1        0.108218   337732.076514    ;  uncertainty r = 0.000035, k = 2.380302
        55        59     1        0.143580   253219.285840    ;  uncertainty r = 0.000037, k = 7.951031
        56        58     1        0.101222   412790.339795    ;  uncertainty r = 0.000056, k = 2.813635
        56        60     1        0.137679   316031.330469    ;  uncertainty r = 0.000062, k = 18.845255
        59        60     1        0.142532   383427.362842    ;  uncertainty r = 0.000060, k = 3.634468
        59        64     1        0.140741   359573.685254    ;  uncertainty r = 0.000052, k = 7.737386
        60        61     1        0.139382   371549.874512    ;  uncertainty r = 0.000036, k = 4.964073
        61        62     1        0.138174   368747.687500    ;  uncertainty r = 0.000135, k = 5.725907
        61        65     1        0.136122   338180.431543    ;  uncertainty r = 0.000086, k = 8.325853
        62        63     1        0.141187   341515.603564    ;  uncertainty r = 0.000034, k = 3.561214
        62        66     1        0.108661   339031.200342    ;  uncertainty r = 0.000011, k = 0.977928
        63        64     1        0.138628   358538.104395    ;  uncertainty r = 0.000049, k = 2.578751
        63        67     1        0.175940   196284.517554    ;  uncertainty r = 0.000052, k = 4.000142
        64        68     1        0.108702   335551.335059    ;  uncertainty r = 0.000015, k = 1.497332

[ angles ]
;       ai        aj        ak funct           theta             cth
         1         2         3     1      117.104881      443.098630    ;  uncertainty theta = 0.004303, k = 0.085525
         1         2        16     1      115.362427      348.472436    ;  uncertainty theta = 0.001970, k = 0.103003
         1        54        55     1      129.183792      287.582774    ;  uncertainty theta = 0.004950, k = 0.270177
         1        54        56     1      118.608078      353.308462    ;  uncertainty theta = 0.007570, k = 0.147463
         2         1         4     1      124.108078      801.286244    ;  uncertainty theta = 0.002716, k = 0.094587
         2         1        54     1      115.953568      464.302763    ;  uncertainty theta = 0.004291, k = 0.109864
         2         3         5     1      109.357834      580.012299    ;  uncertainty theta = 0.003411, k = 0.164335
         2         3         9     1      111.049278      636.996316    ;  uncertainty theta = 0.001804, k = 0.056973
         2         3        17     1      105.321754      443.482293    ;  uncertainty theta = 0.003446, k = 0.183425
         3         2        16     1      112.690002      330.846595    ;  uncertainty theta = 0.002748, k = 0.191438
         3         5         6     1      109.667007      544.088545    ;  uncertainty theta = 0.003126, k = 0.180277
         3         5        10     1      109.139542      584.355842    ;  uncertainty theta = 0.004639, k = 0.176239
         3         5        53     1      107.723289      384.022454    ;  uncertainty theta = 0.001789, k = 0.083418
         3         9         8     1      109.781250      550.882246    ;  uncertainty theta = 0.003398, k = 0.118498
         3         9        45     1      107.485580      382.775669    ;  uncertainty theta = 0.000849, k = 0.034559
         3         9        46     1      107.485580      382.775669    ;  uncertainty theta = 0.000849, k = 0.034559
         4         1        54     1      123.293869      520.830718    ;  uncertainty theta = 0.007970, k = 0.120397
         5         3         9     1      109.366600      551.752806    ;  uncertainty theta = 0.001151, k = 0.237879
         5         3        17     1      107.452553      381.847714    ;  uncertainty theta = 0.002532, k = 0.087792
         5         6         7     1      110.155777      537.181906    ;  uncertainty theta = 0.003354, k = 0.119115
         5         6        40     1      107.460854      385.063155    ;  uncertainty theta = 0.000653, k = 0.058631
         5         6        41     1      107.460854      385.063155    ;  uncertainty theta = 0.000653, k = 0.058631
         5        10        11     1      116.256470      438.591490    ;  uncertainty theta = 0.006636, k = 0.182671
         5        10        18     1      112.697777      315.756941    ;  uncertainty theta = 0.001526, k = 0.296885
         6         5        10     1      110.224083      630.160670    ;  uncertainty theta = 0.002121, k = 0.087819
         6         5        53     1      108.606544      408.575938    ;  uncertainty theta = 0.001745, k = 0.034990
         6         7         8     1      109.900391      583.567575    ;  uncertainty theta = 0.002330, k = 0.083135
         6         7        35     1      108.569168      489.144113    ;  uncertainty theta = 0.003757, k = 0.073146
         6         7        42     1      107.332260      401.082169    ;  uncertainty theta = 0.002516, k = 0.077903
         7         6        40     1      108.676857      396.198101    ;  uncertainty theta = 0.000795, k = 0.026396
         7         6        41     1      108.676857      396.198101    ;  uncertainty theta = 0.000795, k = 0.026396
         7         8         9     1      109.786987      580.835360    ;  uncertainty theta = 0.001913, k = 0.141340
         7         8        43     1      108.292625      386.614311    ;  uncertainty theta = 0.000735, k = 0.019139
         7         8        44     1      108.292625      386.614311    ;  uncertainty theta = 0.000735, k = 0.019139
         7        35        36     1      123.648819      547.647652    ;  uncertainty theta = 0.003749, k = 0.250532
         7        35        37     1      114.135170      399.306701    ;  uncertainty theta = 0.002339, k = 0.216014
         8         7        35     1      108.943726      496.415422    ;  uncertainty theta = 0.001979, k = 0.055108
         8         7        42     1      107.694107      403.879791    ;  uncertainty theta = 0.001685, k = 0.082263
         8         9        45     1      108.763489      400.577939    ;  uncertainty theta = 0.001541, k = 0.036918
         8         9        46     1      108.763489      400.577939    ;  uncertainty theta = 0.001541, k = 0.036918
         9         3        17     1      108.899765      410.826108    ;  uncertainty theta = 0.001556, k = 0.072627
         9         8        43     1      108.482079      402.739687    ;  uncertainty theta = 0.000859, k = 0.036544
         9         8        44     1      108.482079      402.739687    ;  uncertainty theta = 0.000859, k = 0.036544
        10         5        53     1      105.246643      446.517028    ;  uncertainty theta = 0.004204, k = 0.177955
        10        11        12     1      113.070839      435.784547    ;  uncertainty theta = 0.006920, k = 0.140238
        10        11        13     1      124.950012      804.911939    ;  uncertainty theta = 0.003994, k = 0.055585
        11        10        18     1      116.250000      347.593576    ;  uncertainty theta = 0.004441, k = 0.081627
        11        12        14     1      122.197128      370.860213    ;  uncertainty theta = 0.005964, k = 0.255742
        11        12        15     1      118.123451      287.405674    ;  uncertainty theta = 0.005808, k = 0.204925
        12        11        13     1      120.002197      453.227350    ;  uncertainty theta = 0.007890, k = 0.121396
        12        14        19     1      111.845421      637.059456    ;  uncertainty theta = 0.004719, k = 0.108197
        12        15        20     1       89.170425     1132.634133    ;  uncertainty theta = 0.004755, k = 0.314956
        14        12        15     1      116.136452      646.965173    ;  uncertainty theta = 0.002239, k = 0.246117
        14        19        20     1      115.716957      690.992937    ;  uncertainty theta = 0.003156, k = 0.158093
        14        19        24     1      124.040390      433.932787    ;  uncertainty theta = 0.004363, k = 0.201750
        15        20        19     1      109.672325      507.238336    ;  uncertainty theta = 0.002750, k = 0.124654
        15        20        21     1      124.458923      318.004972    ;  uncertainty theta = 0.003631, k = 0.249957
        19        20        21     1      122.449425      322.713122    ;  uncertainty theta = 0.004108, k = 0.373686
        19        24        23     1      106.939438      596.797522    ;  uncertainty theta = 0.003584, k = 0.044131
        19        24        30     1      108.548073      392.911220    ;  uncertainty theta = 0.001454, k = 0.086868
        19        24        31     1      108.548073      392.911220    ;  uncertainty theta = 0.001454, k = 0.086868
        20        19        24     1      120.498146      325.489963    ;  uncertainty theta = 0.004995, k = 0.174544
        20        21        22     1      109.701111      686.046080    ;  uncertainty theta = 0.001850, k = 0.201796
        20        21        26     1      108.925659      409.463193    ;  uncertainty theta = 0.001395, k = 0.154098
        20        21        27     1      108.925659      409.463193    ;  uncertainty theta = 0.001395, k = 0.154098
        21        22        23     1      108.084244      491.834927    ;  uncertainty theta = 0.003315, k = 0.091086
        21        22        25     1      107.580322      510.743273    ;  uncertainty theta = 0.002764, k = 0.057722
        22        21        26     1      109.358154      448.409487    ;  uncertainty theta = 0.001850, k = 0.074310
        22        21        27     1      109.358154      448.409487    ;  uncertainty theta = 0.001850, k = 0.074310
        22        23        24     1      112.487526      700.788206    ;  uncertainty theta = 0.002677, k = 0.118016
        22        23        28     1      108.920166      453.721493    ;  uncertainty theta = 0.001526, k = 0.064884
        22        23        29     1      108.920166      453.721493    ;  uncertainty theta = 0.001526, k = 0.064884
        22        25        32     1      110.438461      450.024231    ;  uncertainty theta = 0.001821, k = 0.029766
        22        25        33     1      110.438461      450.024231    ;  uncertainty theta = 0.001821, k = 0.029766
        22        25        34     1      110.438461      450.024231    ;  uncertainty theta = 0.001821, k = 0.029766
        23        22        25     1      108.245483      523.945384    ;  uncertainty theta = 0.002945, k = 0.105030
        23        24        30     1      108.704140      394.566535    ;  uncertainty theta = 0.001154, k = 0.056791
        23        24        31     1      108.704140      394.566535    ;  uncertainty theta = 0.001154, k = 0.056791
        24        23        28     1      108.660522      413.983038    ;  uncertainty theta = 0.001451, k = 0.079858
        24        23        29     1      108.660522      413.983038    ;  uncertainty theta = 0.001451, k = 0.079858
        26        21        27     1      104.710770      316.430897    ;  uncertainty theta = 0.002647, k = 0.058044
        28        23        29     1      105.686386      320.062785    ;  uncertainty theta = 0.001993, k = 0.069558
        30        24        31     1      105.018166      307.701164    ;  uncertainty theta = 0.001306, k = 0.028790
        32        25        33     1      106.707680      321.292396    ;  uncertainty theta = 0.002211, k = 0.028957
        32        25        34     1      106.707680      321.292396    ;  uncertainty theta = 0.002211, k = 0.028957
        33        25        34     1      106.707680      321.292396    ;  uncertainty theta = 0.002211, k = 0.028957
        35         7        42     1      106.313622      362.200292    ;  uncertainty theta = 0.002423, k = 0.146630
        35        37        38     1      116.622971      385.561065    ;  uncertainty theta = 0.001770, k = 0.124804
        35        37        39     1      116.622971      385.561065    ;  uncertainty theta = 0.001770, k = 0.124804
        36        35        37     1      123.396584      724.695474    ;  uncertainty theta = 0.001503, k = 0.174408
        37        38        47     1      109.352982      479.364486    ;  uncertainty theta = 0.001224, k = 0.042687
        37        38        48     1      109.352982      479.364486    ;  uncertainty theta = 0.001224, k = 0.042687
        37        38        49     1      109.352982      479.364486    ;  uncertainty theta = 0.001224, k = 0.042687
        37        39        50     1      109.352982      479.364486    ;  uncertainty theta = 0.001224, k = 0.042687
        37        39        51     1      109.352982      479.364486    ;  uncertainty theta = 0.001224, k = 0.042687
        37        39        52     1      109.352982      479.364486    ;  uncertainty theta = 0.001224, k = 0.042687
        38        37        39     1      118.428368      428.731644    ;  uncertainty theta = 0.003391, k = 0.223109
        40         6        41     1      105.326035      326.596294    ;  uncertainty theta = 0.002223, k = 0.051835
        43         8        44     1      104.655197      318.642921    ;  uncertainty theta = 0.002537, k = 0.034949
        45         9        46     1      105.089188      316.666285    ;  uncertainty theta = 0.002339, k = 0.045277
        47        38        48     1      106.824196      329.099123    ;  uncertainty theta = 0.001131, k = 0.027019
        47        38        49     1      106.824196      329.099123    ;  uncertainty theta = 0.001131, k = 0.027019
        48        38        49     1      106.824196      329.099123    ;  uncertainty theta = 0.001131, k = 0.027019
        50        39        51     1      106.824196      329.099123    ;  uncertainty theta = 0.001131, k = 0.027019
        50        39        52     1      106.824196      329.099123    ;  uncertainty theta = 0.001131, k = 0.027019
        51        39        52     1      106.824196      329.099123    ;  uncertainty theta = 0.001131, k = 0.027019
        54        55        57     1      123.328720      243.848495    ;  uncertainty theta = 0.006277, k = 0.063678
        54        55        59     1      107.426712      823.882245    ;  uncertainty theta = 0.002514, k = 0.143368
        54        56        58     1      115.801247      275.569702    ;  uncertainty theta = 0.003351, k = 0.099579
        54        56        60     1      105.781700      886.514751    ;  uncertainty theta = 0.005316, k = 0.089861
        55        54        56     1      111.923279      666.738557    ;  uncertainty theta = 0.004099, k = 0.245958
        55        59        60     1      106.181656      692.388540    ;  uncertainty theta = 0.003114, k = 0.146223
        55        59        64     1      132.335785      376.609478    ;  uncertainty theta = 0.002831, k = 0.120412
        56        60        59     1      108.881821      672.013758    ;  uncertainty theta = 0.003814, k = 0.117566
        56        60        61     1      128.914383      350.614808    ;  uncertainty theta = 0.005168, k = 0.172507
        57        55        59     1      124.880981      255.471247    ;  uncertainty theta = 0.003608, k = 0.130863
        58        56        60     1      116.591934      287.498820    ;  uncertainty theta = 0.006173, k = 0.129620
        59        60        61     1      117.867203      353.403779    ;  uncertainty theta = 0.004789, k = 0.188617
        59        64        63     1      116.862488      520.322179    ;  uncertainty theta = 0.003386, k = 0.137450
        59        64        68     1      122.217995      287.152218    ;  uncertainty theta = 0.001794, k = 0.065413
        60        59        64     1      118.504005      408.941757    ;  uncertainty theta = 0.002212, k = 0.092179
        60        61        62     1      120.493874      402.769821    ;  uncertainty theta = 0.004967, k = 0.321121
        60        61        65     1      119.580833      460.266207    ;  uncertainty theta = 0.002067, k = 0.152618
        61        62        63     1      119.757935      480.129641    ;  uncertainty theta = 0.002518, k = 0.130886
        61        62        66     1      120.099426      272.329714    ;  uncertainty theta = 0.002742, k = 0.057392
        62        61        65     1      120.573509      512.857490    ;  uncertainty theta = 0.002607, k = 0.154348
        62        63        64     1      124.343422      388.663505    ;  uncertainty theta = 0.004090, k = 0.068405
        62        63        67     1      118.932030      450.797335    ;  uncertainty theta = 0.001196, k = 0.136785
        63        62        66     1      121.692589      278.919437    ;  uncertainty theta = 0.001462, k = 0.045001
        63        64        68     1      121.180702      286.817682    ;  uncertainty theta = 0.002349, k = 0.081243
        64        63        67     1      120.545433      442.783024    ;  uncertainty theta = 0.002112, k = 0.073443

[ dihedrals ] ; propers for gromacs 4.5 or higher, use funct 9
;       ai        aj        ak        al funct           phase               k        pn
         1         2         3         5     9        0.000000        0.538073         1    ;  uncertainty k = 0.233306
         1         2         3         5     9      180.000000        0.038235         2    ;  uncertainty k = 0.263752
         1         2         3         5     9        0.000000       -0.000218         3    ;  uncertainty k = 0.075018
         1         2         3         5     9      180.000000        0.427065         4    ;  uncertainty k = 0.273033
         1         2         3         9     9        0.000000        0.356635         1    ;  uncertainty k = 0.415309
         1         2         3         9     9      180.000000       -0.249812         2    ;  uncertainty k = 0.377970
         1         2         3         9     9        0.000000        0.303032         3    ;  uncertainty k = 0.124915
         1         2         3         9     9      180.000000        0.347594         4    ;  uncertainty k = 0.230784
         1         2         3        17     9        0.000000        0.842863         1    ;  uncertainty k = 0.324228
         1         2         3        17     9      180.000000       -0.388481         2    ;  uncertainty k = 0.185667
         1         2         3        17     9        0.000000        0.142382         3    ;  uncertainty k = 0.190220
         1         2         3        17     9      180.000000        0.203607         4    ;  uncertainty k = 0.074167
         1        54        55        57     9        0.000000       -0.195562         1    ;  uncertainty k = 0.785964
         1        54        55        57     9      180.000000        7.499473         2    ;  uncertainty k = 0.624675
         1        54        55        57     9        0.000000        1.597188         3    ;  uncertainty k = 0.270321
         1        54        55        57     9      180.000000        0.510769         4    ;  uncertainty k = 0.184986
         1        54        55        59     9        0.000000        0.874218         1    ;  uncertainty k = 1.209178
         1        54        55        59     9      180.000000       13.422480         2    ;  uncertainty k = 0.336907
         1        54        55        59     9        0.000000        1.957060         3    ;  uncertainty k = 0.552498
         1        54        55        59     9      180.000000        0.997037         4    ;  uncertainty k = 0.234166
         1        54        56        58     9        0.000000        2.346511         1    ;  uncertainty k = 0.773814
         1        54        56        58     9      180.000000        1.760965         2    ;  uncertainty k = 0.678718
         1        54        56        58     9        0.000000        1.096145         3    ;  uncertainty k = 0.556506
         1        54        56        58     9      180.000000        0.078971         4    ;  uncertainty k = 0.186082
         1        54        56        60     9        0.000000        1.066849         1    ;  uncertainty k = 2.284648
         1        54        56        60     9      180.000000        7.306876         2    ;  uncertainty k = 0.204304
         1        54        56        60     9        0.000000        1.554442         3    ;  uncertainty k = 0.548460
         1        54        56        60     9      180.000000        0.247948         4    ;  uncertainty k = 0.358118
         2         1        54        55     9        0.000000        1.073581         1    ;  uncertainty k = 1.180994
         2         1        54        55     9      180.000000        2.455460         2    ;  uncertainty k = 0.294371
         2         1        54        55     9        0.000000        0.755902         3    ;  uncertainty k = 0.146204
         2         1        54        55     9      180.000000       -0.473186         4    ;  uncertainty k = 0.114837
         2         1        54        56     9        0.000000        3.010690         1    ;  uncertainty k = 0.719779
         2         1        54        56     9      180.000000        5.305255         2    ;  uncertainty k = 0.476510
         2         1        54        56     9        0.000000        0.324046         3    ;  uncertainty k = 0.211876
         2         1        54        56     9      180.000000       -0.348851         4    ;  uncertainty k = 0.154069
         2         3         5         6     9        0.000000       -2.456050         1    ;  uncertainty k = 0.423193
         2         3         5         6     9      180.000000       -0.285140         2    ;  uncertainty k = 0.384566
         2         3         5         6     9        0.000000        0.525264         3    ;  uncertainty k = 0.239609
         2         3         5         6     9      180.000000       -0.090605         4    ;  uncertainty k = 0.137051
         2         3         5        10     9        0.000000        0.268095         1    ;  uncertainty k = 0.967052
         2         3         5        10     9      180.000000       -1.125890         2    ;  uncertainty k = 0.788624
         2         3         5        10     9        0.000000        0.364669         3    ;  uncertainty k = 0.415219
         2         3         5        10     9      180.000000       -0.046722         4    ;  uncertainty k = 0.358433
         2         3         5        53     9        0.000000       -0.012458         1    ;  uncertainty k = 0.925991
         2         3         5        53     9      180.000000       -1.395911         2    ;  uncertainty k = 0.544728
         2         3         5        53     9        0.000000        0.481564         3    ;  uncertainty k = 0.254067
         2         3         5        53     9      180.000000       -0.277766         4    ;  uncertainty k = 0.119792
         2         3         9         8     9        0.000000       -4.149850         1    ;  uncertainty k = 0.776026
         2         3         9         8     9      180.000000        0.168364         2    ;  uncertainty k = 0.161317
         2         3         9         8     9        0.000000        0.866364         3    ;  uncertainty k = 0.069409
         2         3         9         8     9      180.000000       -0.161171         4    ;  uncertainty k = 0.123968
         2         3         9        45     9        0.000000       -0.421514         1    ;  uncertainty k = 0.494251
         2         3         9        45     9      180.000000       -1.355083         2    ;  uncertainty k = 0.479136
         2         3         9        45     9        0.000000        0.895820         3    ;  uncertainty k = 0.117013
         2         3         9        45     9      180.000000       -0.295404         4    ;  uncertainty k = 0.070234
         2         3         9        46     9        0.000000       -0.421514         1    ;  uncertainty k = 0.494251
         2         3         9        46     9      180.000000       -1.355083         2    ;  uncertainty k = 0.479136
         2         3         9        46     9        0.000000        0.895820         3    ;  uncertainty k = 0.117013
         2         3         9        46     9      180.000000       -0.295404         4    ;  uncertainty k = 0.070234
         3         2         1         4     9        0.000000        3.548100         1    ;  uncertainty k = 0.733549
         3         2         1         4     9      180.000000       10.721952         2    ;  uncertainty k = 0.171972
         3         2         1         4     9        0.000000        0.825626         3    ;  uncertainty k = 0.232378
         3         2         1         4     9      180.000000        0.169849         4    ;  uncertainty k = 0.285877
         3         2         1        54     9        0.000000        5.122782         1    ;  uncertainty k = 1.411924
         3         2         1        54     9      180.000000       13.116806         2    ;  uncertainty k = 0.291474
         3         2         1        54     9        0.000000        1.159864         3    ;  uncertainty k = 0.106582
         3         2         1        54     9      180.000000       -1.246707         4    ;  uncertainty k = 0.423936
         3         5         6         7     9        0.000000       -1.441231         1    ;  uncertainty k = 2.707287
         3         5         6         7     9      180.000000       -1.360690         2    ;  uncertainty k = 1.252264
         3         5         6         7     9        0.000000        0.525245         3    ;  uncertainty k = 0.493098
         3         5         6         7     9      180.000000       -1.218764         4    ;  uncertainty k = 0.207221
         3         5         6        40     9        0.000000       -0.886560         1    ;  uncertainty k = 0.513191
         3         5         6        40     9      180.000000       -0.614553         2    ;  uncertainty k = 0.170864
         3         5         6        40     9        0.000000        0.125433         3    ;  uncertainty k = 0.062892
         3         5         6        40     9      180.000000       -0.135794         4    ;  uncertainty k = 0.112685
         3         5         6        41     9        0.000000       -0.886560         1    ;  uncertainty k = 0.513191
         3         5         6        41     9      180.000000       -0.614553         2    ;  uncertainty k = 0.170864
         3         5         6        41     9        0.000000        0.125433         3    ;  uncertainty k = 0.062892
         3         5         6        41     9      180.000000       -0.135794         4    ;  uncertainty k = 0.112685
         3         5        10        11     9        0.000000        0.799709         1    ;  uncertainty k = 0.606926
         3         5        10        11     9      180.000000        0.226262         2    ;  uncertainty k = 0.176703
         3         5        10        11     9        0.000000       -0.089394         3    ;  uncertainty k = 0.112175
         3         5        10        11     9      180.000000        0.456472         4    ;  uncertainty k = 0.211379
         3         5        10        18     9        0.000000        2.700207         1    ;  uncertainty k = 0.607690
         3         5        10        18     9      180.000000       -1.551771         2    ;  uncertainty k = 0.405633
         3         5        10        18     9        0.000000        0.520296         3    ;  uncertainty k = 0.249721
         3         5        10        18     9      180.000000        0.165312         4    ;  uncertainty k = 0.147787
         3         9         8         7     9        0.000000       -5.572604         1    ;  uncertainty k = 0.740864
         3         9         8         7     9      180.000000       -1.073247         2    ;  uncertainty k = 0.648539
         3         9         8         7     9        0.000000        1.432368         3    ;  uncertainty k = 0.144857
         3         9         8         7     9      180.000000       -1.200677         4    ;  uncertainty k = 0.214908
         3         9         8        43     9        0.000000       -1.162658         1    ;  uncertainty k = 0.422204
         3         9         8        43     9      180.000000       -0.677947         2    ;  uncertainty k = 0.276277
         3         9         8        43     9        0.000000        0.405251         3    ;  uncertainty k = 0.184713
         3         9         8        43     9      180.000000       -0.085340         4    ;  uncertainty k = 0.032159
         3         9         8        44     9        0.000000       -1.162658         1    ;  uncertainty k = 0.422204
         3         9         8        44     9      180.000000       -0.677947         2    ;  uncertainty k = 0.276277
         3         9         8        44     9        0.000000        0.405251         3    ;  uncertainty k = 0.184713
         3         9         8        44     9      180.000000       -0.085340         4    ;  uncertainty k = 0.032159
         4         1         2        16     9        0.000000        2.939987         1    ;  uncertainty k = 0.831067
         4         1         2        16     9      180.000000       14.267556         2    ;  uncertainty k = 0.167653
         4         1         2        16     9        0.000000        1.689165         3    ;  uncertainty k = 0.322659
         4         1         2        16     9      180.000000       -0.543731         4    ;  uncertainty k = 0.250463
         4         1        54        55     9        0.000000       -3.133620         1    ;  uncertainty k = 1.013317
         4         1        54        55     9      180.000000        2.510491         2    ;  uncertainty k = 0.402613
         4         1        54        55     9        0.000000        0.431615         3    ;  uncertainty k = 0.229423
         4         1        54        55     9      180.000000        0.113829         4    ;  uncertainty k = 0.096796
         4         1        54        56     9        0.000000       -0.544169         1    ;  uncertainty k = 0.593576
         4         1        54        56     9      180.000000        5.728765         2    ;  uncertainty k = 0.176010
         4         1        54        56     9        0.000000        1.026255         3    ;  uncertainty k = 0.156163
         4         1        54        56     9      180.000000        0.054755         4    ;  uncertainty k = 0.093103
         5         3         2        16     9        0.000000        2.408689         1    ;  uncertainty k = 0.593825
         5         3         2        16     9      180.000000       -1.734534         2    ;  uncertainty k = 0.665171
         5         3         2        16     9        0.000000        0.548273         3    ;  uncertainty k = 0.255078
         5         3         2        16     9      180.000000        0.154291         4    ;  uncertainty k = 0.130505
         5         3         9         8     9        0.000000       -4.804025         1    ;  uncertainty k = 1.427188
         5         3         9         8     9      180.000000        0.196824         2    ;  uncertainty k = 0.731818
         5         3         9         8     9        0.000000        0.932207         3    ;  uncertainty k = 0.332731
         5         3         9         8     9      180.000000       -1.204285         4    ;  uncertainty k = 0.156444
         5         3         9        45     9        0.000000       -0.737758         1    ;  uncertainty k = 0.625634
         5         3         9        45     9      180.000000       -0.674183         2    ;  uncertainty k = 0.266265
         5         3         9        45     9        0.000000        0.105382         3    ;  uncertainty k = 0.044569
         5         3         9        45     9      180.000000       -0.123167         4    ;  uncertainty k = 0.092394
         5         3         9        46     9        0.000000       -0.737758         1    ;  uncertainty k = 0.625634
         5         3         9        46     9      180.000000       -0.674183         2    ;  uncertainty k = 0.266265
         5         3         9        46     9        0.000000        0.105382         3    ;  uncertainty k = 0.044569
         5         3         9        46     9      180.000000       -0.123167         4    ;  uncertainty k = 0.092394
         5         6         7         8     9        0.000000       -3.685858         1    ;  uncertainty k = 1.543474
         5         6         7         8     9      180.000000       -0.285065         2    ;  uncertainty k = 0.572018
         5         6         7         8     9        0.000000        0.981156         3    ;  uncertainty k = 0.134158
         5         6         7         8     9      180.000000       -1.148830         4    ;  uncertainty k = 0.219793
         5         6         7        35     9        0.000000       -1.988880         1    ;  uncertainty k = 0.819118
         5         6         7        35     9      180.000000       -0.959087         2    ;  uncertainty k = 0.272882
         5         6         7        35     9        0.000000        0.443360         3    ;  uncertainty k = 0.318150
         5         6         7        35     9      180.000000        0.183680         4    ;  uncertainty k = 0.094585
         5         6         7        42     9        0.000000       -1.930129         1    ;  uncertainty k = 0.461178
         5         6         7        42     9      180.000000       -0.446539         2    ;  uncertainty k = 0.219585
         5         6         7        42     9        0.000000        0.087588         3    ;  uncertainty k = 0.087001
         5         6         7        42     9      180.000000       -0.164536         4    ;  uncertainty k = 0.141862
         5        10        11        12     9        0.000000        3.955843         1    ;  uncertainty k = 1.375018
         5        10        11        12     9      180.000000       12.511310         2    ;  uncertainty k = 0.157161
         5        10        11        12     9        0.000000        1.265290         3    ;  uncertainty k = 0.258416
         5        10        11        12     9      180.000000       -1.434391         4    ;  uncertainty k = 0.492912
         5        10        11        13     9        0.000000        4.208886         1    ;  uncertainty k = 1.051963
         5        10        11        13     9      180.000000       13.258813         2    ;  uncertainty k = 0.102362
         5        10        11        13     9        0.000000        0.423146         3    ;  uncertainty k = 0.283109
         5        10        11        13     9      180.000000       -0.345444         4    ;  uncertainty k = 0.133898
         6         5         3         9     9        0.000000       -1.518587         1    ;  uncertainty k = 2.482398
         6         5         3         9     9      180.000000        0.526138         2    ;  uncertainty k = 0.958977
         6         5         3         9     9        0.000000        0.430355         3    ;  uncertainty k = 0.503265
         6         5         3         9     9      180.000000       -1.115433         4    ;  uncertainty k = 0.261449
         6         5         3        17     9        0.000000       -1.273222         1    ;  uncertainty k = 0.307608
         6         5         3        17     9      180.000000       -0.212994         2    ;  uncertainty k = 0.243090
         6         5         3        17     9        0.000000       -0.233815         3    ;  uncertainty k = 0.061311
         6         5         3        17     9      180.000000       -0.144420         4    ;  uncertainty k = 0.051286
         6         5        10        11     9        0.000000        0.365179         1    ;  uncertainty k = 0.381956
         6         5        10        11     9      180.000000        0.212131         2    ;  uncertainty k = 0.301001
         6         5        10        11     9        0.000000        0.181087         3    ;  uncertainty k = 0.072733
         6         5        10        11     9      180.000000        0.343018         4    ;  uncertainty k = 0.126684
         6         5        10        18     9        0.000000        0.944364         1    ;  uncertainty k = 0.463017
         6         5        10        18     9      180.000000       -0.511752         2    ;  uncertainty k = 0.348976
         6         5        10        18     9        0.000000        0.327111         3    ;  uncertainty k = 0.178626
         6         5        10        18     9      180.000000        0.059980         4    ;  uncertainty k = 0.085878
         6         7         8         9     9        0.000000       -5.487464         1    ;  uncertainty k = 0.622101
         6         7         8         9     9      180.000000        0.630063         2    ;  uncertainty k = 0.545359
         6         7         8         9     9        0.000000        1.367198         3    ;  uncertainty k = 0.173804
         6         7         8         9     9      180.000000       -1.032851         4    ;  uncertainty k = 0.273094
         6         7         8        43     9        0.000000       -1.226844         1    ;  uncertainty k = 0.266748
         6         7         8        43     9      180.000000       -0.345485         2    ;  uncertainty k = 0.101300
         6         7         8        43     9        0.000000        0.394880         3    ;  uncertainty k = 0.108227
         6         7         8        43     9      180.000000       -0.070781         4    ;  uncertainty k = 0.048007
         6         7         8        44     9        0.000000       -1.226844         1    ;  uncertainty k = 0.266748
         6         7         8        44     9      180.000000       -0.345485         2    ;  uncertainty k = 0.101300
         6         7         8        44     9        0.000000        0.394880         3    ;  uncertainty k = 0.108227
         6         7         8        44     9      180.000000       -0.070781         4    ;  uncertainty k = 0.048007
         6         7        35        36     9        0.000000       -1.170185         1    ;  uncertainty k = 0.334655
         6         7        35        36     9      180.000000        4.880266         2    ;  uncertainty k = 0.323686
         6         7        35        36     9        0.000000        1.279706         3    ;  uncertainty k = 0.118363
         6         7        35        36     9      180.000000        0.575624         4    ;  uncertainty k = 0.083005
         6         7        35        37     9        0.000000       -1.631697         1    ;  uncertainty k = 0.279350
         6         7        35        37     9      180.000000        3.392199         2    ;  uncertainty k = 0.510159
         6         7        35        37     9        0.000000        0.814553         3    ;  uncertainty k = 0.127255
         6         7        35        37     9      180.000000        0.128487         4    ;  uncertainty k = 0.053904
         7         6         5        10     9        0.000000       -2.823350         1    ;  uncertainty k = 0.488930
         7         6         5        10     9      180.000000       -0.460801         2    ;  uncertainty k = 0.536332
         7         6         5        10     9        0.000000        0.760014         3    ;  uncertainty k = 0.189206
         7         6         5        10     9      180.000000       -0.140462         4    ;  uncertainty k = 0.174339
         7         6         5        53     9        0.000000       -0.729544         1    ;  uncertainty k = 0.497030
         7         6         5        53     9      180.000000       -0.791957         2    ;  uncertainty k = 0.456970
         7         6         5        53     9        0.000000       -0.041902         3    ;  uncertainty k = 0.196139
         7         6         5        53     9      180.000000       -0.091107         4    ;  uncertainty k = 0.082280
         7         8         9        45     9        0.000000       -1.242142         1    ;  uncertainty k = 0.333100
         7         8         9        45     9      180.000000       -0.547474         2    ;  uncertainty k = 0.199769
         7         8         9        45     9        0.000000        0.486958         3    ;  uncertainty k = 0.161841
         7         8         9        45     9      180.000000       -0.063234         4    ;  uncertainty k = 0.050819
         7         8         9        46     9        0.000000       -1.242142         1    ;  uncertainty k = 0.333100
         7         8         9        46     9      180.000000       -0.547474         2    ;  uncertainty k = 0.199769
         7         8         9        46     9        0.000000        0.486958         3    ;  uncertainty k = 0.161841
         7         8         9        46     9      180.000000       -0.063234         4    ;  uncertainty k = 0.050819
         7        35        37        38     9        0.000000        9.050821         1    ;  uncertainty k = 0.304912
         7        35        37        38     9      180.000000        6.374692         2    ;  uncertainty k = 0.405917
         7        35        37        38     9        0.000000        1.178678         3    ;  uncertainty k = 0.297789
         7        35        37        38     9      180.000000        0.054538         4    ;  uncertainty k = 0.124306
         7        35        37        39     9        0.000000        9.050821         1    ;  uncertainty k = 0.304912
         7        35        37        39     9      180.000000        6.374692         2    ;  uncertainty k = 0.405917
         7        35        37        39     9        0.000000        1.178678         3    ;  uncertainty k = 0.297789
         7        35        37        39     9      180.000000        0.054538         4    ;  uncertainty k = 0.124306
         8         7         6        40     9        0.000000       -1.411123         1    ;  uncertainty k = 0.345622
         8         7         6        40     9      180.000000       -0.225290         2    ;  uncertainty k = 0.172594
         8         7         6        40     9        0.000000        0.346843         3    ;  uncertainty k = 0.114252
         8         7         6        40     9      180.000000       -0.038457         4    ;  uncertainty k = 0.044896
         8         7         6        41     9        0.000000       -1.411123         1    ;  uncertainty k = 0.345622
         8         7         6        41     9      180.000000       -0.225290         2    ;  uncertainty k = 0.172594
         8         7         6        41     9        0.000000        0.346843         3    ;  uncertainty k = 0.114252
         8         7         6        41     9      180.000000       -0.038457         4    ;  uncertainty k = 0.044896
         8         7        35        36     9        0.000000       -1.412751         1    ;  uncertainty k = 0.366362
         8         7        35        36     9      180.000000        4.939282         2    ;  uncertainty k = 0.250194
         8         7        35        36     9        0.000000        1.341107         3    ;  uncertainty k = 0.099404
         8         7        35        36     9      180.000000        0.562838         4    ;  uncertainty k = 0.064019
         8         7        35        37     9        0.000000       -1.501807         1    ;  uncertainty k = 0.463410
         8         7        35        37     9      180.000000        3.323275         2    ;  uncertainty k = 0.502078
         8         7        35        37     9        0.000000        0.807080         3    ;  uncertainty k = 0.124119
         8         7        35        37     9      180.000000        0.125518         4    ;  uncertainty k = 0.039696
         8         9         3        17     9        0.000000       -1.458221         1    ;  uncertainty k = 0.303158
         8         9         3        17     9      180.000000       -0.255606         2    ;  uncertainty k = 0.240018
         8         9         3        17     9        0.000000        0.029639         3    ;  uncertainty k = 0.100360
         8         9         3        17     9      180.000000       -0.150287         4    ;  uncertainty k = 0.106318
         9         3         2        16     9        0.000000        0.525835         1    ;  uncertainty k = 0.592042
         9         3         2        16     9      180.000000       -0.570173         2    ;  uncertainty k = 0.374079
         9         3         2        16     9        0.000000        0.304499         3    ;  uncertainty k = 0.122531
         9         3         2        16     9      180.000000        0.049341         4    ;  uncertainty k = 0.054313
         9         3         5        10     9        0.000000       -2.807744         1    ;  uncertainty k = 0.487567
         9         3         5        10     9      180.000000       -0.105251         2    ;  uncertainty k = 0.383353
         9         3         5        10     9        0.000000        0.586298         3    ;  uncertainty k = 0.173542
         9         3         5        10     9      180.000000       -0.070878         4    ;  uncertainty k = 0.195095
         9         3         5        53     9        0.000000       -1.272125         1    ;  uncertainty k = 0.255827
         9         3         5        53     9      180.000000       -0.302272         2    ;  uncertainty k = 0.366703
         9         3         5        53     9        0.000000       -0.215970         3    ;  uncertainty k = 0.081625
         9         3         5        53     9      180.000000       -0.166477         4    ;  uncertainty k = 0.069123
         9         8         7        35     9        0.000000       -3.041090         1    ;  uncertainty k = 1.250697
         9         8         7        35     9      180.000000       -0.383141         2    ;  uncertainty k = 0.506412
         9         8         7        35     9        0.000000        0.568121         3    ;  uncertainty k = 0.143697
         9         8         7        35     9      180.000000        0.124098         4    ;  uncertainty k = 0.149878
         9         8         7        42     9        0.000000       -2.462407         1    ;  uncertainty k = 0.395127
         9         8         7        42     9      180.000000        0.138659         2    ;  uncertainty k = 0.106163
         9         8         7        42     9        0.000000        0.247790         3    ;  uncertainty k = 0.112075
         9         8         7        42     9      180.000000       -0.234904         4    ;  uncertainty k = 0.140378
        10         5         3        17     9        0.000000        0.047715         1    ;  uncertainty k = 1.092912
        10         5         3        17     9      180.000000       -1.470377         2    ;  uncertainty k = 0.516462
        10         5         3        17     9        0.000000        0.499603         3    ;  uncertainty k = 0.269005
        10         5         3        17     9      180.000000       -0.254248         4    ;  uncertainty k = 0.119856
        10         5         6        40     9        0.000000       -0.426053         1    ;  uncertainty k = 0.715619
        10         5         6        40     9      180.000000       -1.218663         2    ;  uncertainty k = 0.323961
        10         5         6        40     9        0.000000        0.959757         3    ;  uncertainty k = 0.057975
        10         5         6        40     9      180.000000       -0.287486         4    ;  uncertainty k = 0.054397
        10         5         6        41     9        0.000000       -0.426053         1    ;  uncertainty k = 0.715619
        10         5         6        41     9      180.000000       -1.218663         2    ;  uncertainty k = 0.323961
        10         5         6        41     9        0.000000        0.959757         3    ;  uncertainty k = 0.057975
        10         5         6        41     9      180.000000       -0.287486         4    ;  uncertainty k = 0.054397
        10        11        12        14     9        0.000000        2.331066         1    ;  uncertainty k = 1.152102
        10        11        12        14     9      180.000000        2.596169         2    ;  uncertainty k = 0.278815
        10        11        12        14     9        0.000000        0.009927         3    ;  uncertainty k = 0.144977
        10        11        12        14     9      180.000000       -0.114334         4    ;  uncertainty k = 0.149289
        10        11        12        15     9        0.000000        3.367960         1    ;  uncertainty k = 1.051353
        10        11        12        15     9      180.000000        3.218021         2    ;  uncertainty k = 0.680396
        10        11        12        15     9        0.000000        1.143577         3    ;  uncertainty k = 0.311002
        10        11        12        15     9      180.000000       -0.348976         4    ;  uncertainty k = 0.193639
        11        10         5        53     9        0.000000        1.089600         1    ;  uncertainty k = 0.336795
        11        10         5        53     9      180.000000       -0.431387         2    ;  uncertainty k = 0.172745
        11        10         5        53     9        0.000000        0.083106         3    ;  uncertainty k = 0.110757
        11        10         5        53     9      180.000000        0.217749         4    ;  uncertainty k = 0.051819
        11        12        14        19     9        0.000000        0.338836         1    ;  uncertainty k = 0.784673
        11        12        14        19     9      180.000000       19.192857         2    ;  uncertainty k = 0.359716
        11        12        14        19     9        0.000000        1.903447         3    ;  uncertainty k = 0.386883
        11        12        14        19     9      180.000000        1.368535         4    ;  uncertainty k = 0.528772
        11        12        15        20     9        0.000000        0.370727         1    ;  uncertainty k = 1.804242
        11        12        15        20     9      180.000000        8.920830         2    ;  uncertainty k = 1.081273
        11        12        15        20     9        0.000000        0.589745         3    ;  uncertainty k = 1.110553
        11        12        15        20     9      180.000000        0.676613         4    ;  uncertainty k = 0.547063
        12        11        10        18     9        0.000000       -0.086051         1    ;  uncertainty k = 0.569285
        12        11        10        18     9      180.000000        6.824223         2    ;  uncertainty k = 1.004102
        12        11        10        18     9        0.000000        2.774672         3    ;  uncertainty k = 0.278048
        12        11        10        18     9      180.000000        0.087878         4    ;  uncertainty k = 0.345011
        12        14        19        20     9        0.000000       -0.476241         1    ;  uncertainty k = 0.425307
        12        14        19        20     9      180.000000       15.671500         2    ;  uncertainty k = 0.795841
        12        14        19        20     9        0.000000       -2.864533         3    ;  uncertainty k = 0.780902
        12        14        19        20     9      180.000000        1.605024         4    ;  uncertainty k = 0.448125
        12        14        19        24     9        0.000000        0.569206         1    ;  uncertainty k = 1.621980
        12        14        19        24     9      180.000000       12.800205         2    ;  uncertainty k = 0.282748
        12        14        19        24     9        0.000000        1.817073         3    ;  uncertainty k = 0.361654
        12        14        19        24     9      180.000000        0.682642         4    ;  uncertainty k = 0.136948
        12        15        20        19     9        0.000000       -0.523789         1    ;  uncertainty k = 1.004169
        12        15        20        19     9      180.000000       13.442345         2    ;  uncertainty k = 0.923619
        12        15        20        19     9        0.000000       -9.024257         3    ;  uncertainty k = 1.660071
        12        15        20        19     9      180.000000        1.636793         4    ;  uncertainty k = 0.487983
        12        15        20        21     9        0.000000        1.116166         1    ;  uncertainty k = 1.266411
        12        15        20        21     9      180.000000       10.158909         2    ;  uncertainty k = 0.818049
        12        15        20        21     9        0.000000        0.724355         3    ;  uncertainty k = 0.566010
        12        15        20        21     9      180.000000       -0.026620         4    ;  uncertainty k = 0.200593
        13        11        10        18     9        0.000000        2.038363         1    ;  uncertainty k = 0.746143
        13        11        10        18     9      180.000000       14.699346         2    ;  uncertainty k = 0.325315
        13        11        10        18     9        0.000000        1.840592         3    ;  uncertainty k = 0.226058
        13        11        10        18     9      180.000000       -0.518143         4    ;  uncertainty k = 0.264067
        13        11        12        14     9        0.000000       -0.975565         1    ;  uncertainty k = 1.614283
        13        11        12        14     9      180.000000        3.488550         2    ;  uncertainty k = 0.286154
        13        11        12        14     9        0.000000        0.632000         3    ;  uncertainty k = 0.220397
        13        11        12        14     9      180.000000        0.223278         4    ;  uncertainty k = 0.063243
        13        11        12        15     9        0.000000       -0.928770         1    ;  uncertainty k = 0.780300
        13        11        12        15     9      180.000000        4.634695         2    ;  uncertainty k = 0.475093
        13        11        12        15     9        0.000000        0.007574         3    ;  uncertainty k = 0.071977
        13        11        12        15     9      180.000000        0.288910         4    ;  uncertainty k = 0.240907
        14        12        15        20     9        0.000000        0.143511         1    ;  uncertainty k = 1.333641
        14        12        15        20     9      180.000000       14.564367         2    ;  uncertainty k = 1.374348
        14        12        15        20     9        0.000000       -9.893199         3    ;  uncertainty k = 1.620531
        14        12        15        20     9      180.000000        1.663619         4    ;  uncertainty k = 0.759588
        14        19        20        15     9        0.000000        0.087022         1    ;  uncertainty k = 0.519435
        14        19        20        15     9      180.000000       17.308740         2    ;  uncertainty k = 0.865665
        14        19        20        15     9        0.000000       -2.374264         3    ;  uncertainty k = 0.748324
        14        19        20        15     9      180.000000        1.160228         4    ;  uncertainty k = 0.641111
        14        19        20        21     9        0.000000        0.011055         1    ;  uncertainty k = 0.425259
        14        19        20        21     9      180.000000       14.953749         2    ;  uncertainty k = 0.328993
        14        19        20        21     9        0.000000        1.241934         3    ;  uncertainty k = 0.342959
        14        19        20        21     9      180.000000        1.144042         4    ;  uncertainty k = 0.470191
        14        19        24        23     9        0.000000       -3.954572         1    ;  uncertainty k = 1.035742
        14        19        24        23     9      180.000000        1.199577         2    ;  uncertainty k = 0.494541
        14        19        24        23     9        0.000000        0.552603         3    ;  uncertainty k = 0.196554
        14        19        24        23     9      180.000000        0.408701         4    ;  uncertainty k = 0.071879
        14        19        24        30     9        0.000000        0.678330         1    ;  uncertainty k = 0.150352
        14        19        24        30     9      180.000000        1.438459         2    ;  uncertainty k = 0.504096
        14        19        24        30     9        0.000000        0.609129         3    ;  uncertainty k = 0.196471
        14        19        24        30     9      180.000000        0.167234         4    ;  uncertainty k = 0.108981
        14        19        24        31     9        0.000000        0.678330         1    ;  uncertainty k = 0.150352
        14        19        24        31     9      180.000000        1.438459         2    ;  uncertainty k = 0.504096
        14        19        24        31     9        0.000000        0.609129         3    ;  uncertainty k = 0.196471
        14        19        24        31     9      180.000000        0.167234         4    ;  uncertainty k = 0.108981
        15        12        14        19     9        0.000000       -0.152600         1    ;  uncertainty k = 0.906407
        15        12        14        19     9      180.000000       20.432965         2    ;  uncertainty k = 0.275340
        15        12        14        19     9        0.000000       -2.337892         3    ;  uncertainty k = 1.016825
        15        12        14        19     9      180.000000        1.938626         4    ;  uncertainty k = 0.362221
        15        20        19        24     9        0.000000        0.239944         1    ;  uncertainty k = 0.547138
        15        20        19        24     9      180.000000       12.400727         2    ;  uncertainty k = 0.549556
        15        20        19        24     9        0.000000        0.936373         3    ;  uncertainty k = 0.318788
        15        20        19        24     9      180.000000        0.958147         4    ;  uncertainty k = 0.190163
        15        20        21        22     9        0.000000       -8.471687         1    ;  uncertainty k = 1.305576
        15        20        21        22     9      180.000000       -0.738803         2    ;  uncertainty k = 0.986263
        15        20        21        22     9        0.000000        0.572190         3    ;  uncertainty k = 0.535086
        15        20        21        22     9      180.000000        0.223231         4    ;  uncertainty k = 0.263405
        15        20        21        26     9        0.000000        0.153964         1    ;  uncertainty k = 0.629108
        15        20        21        26     9      180.000000        0.393717         2    ;  uncertainty k = 0.317135
        15        20        21        26     9        0.000000        0.658149         3    ;  uncertainty k = 0.161833
        15        20        21        26     9      180.000000       -0.071880         4    ;  uncertainty k = 0.067074
        15        20        21        27     9        0.000000        0.153964         1    ;  uncertainty k = 0.629108
        15        20        21        27     9      180.000000        0.393717         2    ;  uncertainty k = 0.317135
        15        20        21        27     9        0.000000        0.658149         3    ;  uncertainty k = 0.161833
        15        20        21        27     9      180.000000       -0.071880         4    ;  uncertainty k = 0.067074
        16         2         1        54     9        0.000000        0.368328         1    ;  uncertainty k = 0.566291
        16         2         1        54     9      180.000000        7.516844         2    ;  uncertainty k = 0.853394
        16         2         1        54     9        0.000000        2.783326         3    ;  uncertainty k = 0.337172
        16         2         1        54     9      180.000000        0.099781         4    ;  uncertainty k = 0.359534
        16         2         3        17     9        0.000000        0.772642         1    ;  uncertainty k = 0.361185
        16         2         3        17     9      180.000000       -0.810519         2    ;  uncertainty k = 0.254660
        16         2         3        17     9        0.000000        0.229651         3    ;  uncertainty k = 0.155141
        16         2         3        17     9      180.000000        0.144499         4    ;  uncertainty k = 0.050741
        17         3         5        53     9        0.000000        1.513385         1    ;  uncertainty k = 0.281707
        17         3         5        53     9      180.000000       -0.677905         2    ;  uncertainty k = 0.153637
        17         3         5        53     9        0.000000       -0.218104         3    ;  uncertainty k = 0.163610
        17         3         5        53     9      180.000000       -0.044998         4    ;  uncertainty k = 0.125017
        17         3         9        45     9        0.000000        1.377021         1    ;  uncertainty k = 0.282677
        17         3         9        45     9      180.000000       -0.517245         2    ;  uncertainty k = 0.207401
        17         3         9        45     9        0.000000       -0.079662         3    ;  uncertainty k = 0.113098
        17         3         9        45     9      180.000000        0.041721         4    ;  uncertainty k = 0.028124
        17         3         9        46     9        0.000000        1.377021         1    ;  uncertainty k = 0.282677
        17         3         9        46     9      180.000000       -0.517245         2    ;  uncertainty k = 0.207401
        17         3         9        46     9        0.000000       -0.079662         3    ;  uncertainty k = 0.113098
        17         3         9        46     9      180.000000        0.041721         4    ;  uncertainty k = 0.028124
        18        10         5        53     9        0.000000        0.543896         1    ;  uncertainty k = 0.397136
        18        10         5        53     9      180.000000       -0.624323         2    ;  uncertainty k = 0.182566
        18        10         5        53     9        0.000000        0.192235         3    ;  uncertainty k = 0.116009
        18        10         5        53     9      180.000000        0.189280         4    ;  uncertainty k = 0.076527
        19        20        21        22     9        0.000000       -4.140071         1    ;  uncertainty k = 1.925675
        19        20        21        22     9      180.000000        2.074247         2    ;  uncertainty k = 0.552905
        19        20        21        22     9        0.000000       -0.109904         3    ;  uncertainty k = 0.505232
        19        20        21        22     9      180.000000        0.002033         4    ;  uncertainty k = 0.168271
        19        20        21        26     9        0.000000        0.751076         1    ;  uncertainty k = 0.572851
        19        20        21        26     9      180.000000        0.321327         2    ;  uncertainty k = 0.277446
        19        20        21        26     9        0.000000       -0.191165         3    ;  uncertainty k = 0.140749
        19        20        21        26     9      180.000000       -0.337116         4    ;  uncertainty k = 0.203995
        19        20        21        27     9        0.000000        0.751076         1    ;  uncertainty k = 0.572851
        19        20        21        27     9      180.000000        0.321327         2    ;  uncertainty k = 0.277446
        19        20        21        27     9        0.000000       -0.191165         3    ;  uncertainty k = 0.140749
        19        20        21        27     9      180.000000       -0.337116         4    ;  uncertainty k = 0.203995
        19        24        23        22     9        0.000000       -2.230974         1    ;  uncertainty k = 1.801449
        19        24        23        22     9      180.000000       -1.841150         2    ;  uncertainty k = 0.733686
        19        24        23        22     9        0.000000        2.407959         3    ;  uncertainty k = 0.680334
        19        24        23        22     9      180.000000       -0.535745         4    ;  uncertainty k = 0.301690
        19        24        23        28     9        0.000000        1.199598         1    ;  uncertainty k = 0.377899
        19        24        23        28     9      180.000000       -1.613470         2    ;  uncertainty k = 0.549592
        19        24        23        28     9        0.000000        0.472706         3    ;  uncertainty k = 0.260800
        19        24        23        28     9      180.000000        0.111560         4    ;  uncertainty k = 0.091588
        19        24        23        29     9        0.000000        1.199598         1    ;  uncertainty k = 0.377899
        19        24        23        29     9      180.000000       -1.613470         2    ;  uncertainty k = 0.549592
        19        24        23        29     9        0.000000        0.472706         3    ;  uncertainty k = 0.260800
        19        24        23        29     9      180.000000        0.111560         4    ;  uncertainty k = 0.091588
        20        19        24        23     9        0.000000       -4.440652         1    ;  uncertainty k = 1.431166
        20        19        24        23     9      180.000000        4.155396         2    ;  uncertainty k = 1.296225
        20        19        24        23     9        0.000000       -0.642889         3    ;  uncertainty k = 0.597439
        20        19        24        23     9      180.000000       -0.217610         4    ;  uncertainty k = 0.318749
        20        19        24        30     9        0.000000        0.013025         1    ;  uncertainty k = 0.359065
        20        19        24        30     9      180.000000        1.250042         2    ;  uncertainty k = 0.490358
        20        19        24        30     9        0.000000        0.121610         3    ;  uncertainty k = 0.182463
        20        19        24        30     9      180.000000       -0.043715         4    ;  uncertainty k = 0.054548
        20        19        24        31     9        0.000000        0.013025         1    ;  uncertainty k = 0.359065
        20        19        24        31     9      180.000000        1.250042         2    ;  uncertainty k = 0.490358
        20        19        24        31     9        0.000000        0.121610         3    ;  uncertainty k = 0.182463
        20        19        24        31     9      180.000000       -0.043715         4    ;  uncertainty k = 0.054548
        20        21        22        23     9        0.000000       -2.931117         1    ;  uncertainty k = 2.436693
        20        21        22        23     9      180.000000       -1.451129         2    ;  uncertainty k = 0.464093
        20        21        22        23     9        0.000000        1.404828         3    ;  uncertainty k = 0.130307
        20        21        22        23     9      180.000000       -0.528609         4    ;  uncertainty k = 0.249297
        20        21        22        25     9        0.000000       -2.021362         1    ;  uncertainty k = 1.008927
        20        21        22        25     9      180.000000       -1.118312         2    ;  uncertainty k = 0.472230
        20        21        22        25     9        0.000000        1.258207         3    ;  uncertainty k = 0.234248
        20        21        22        25     9      180.000000       -0.045254         4    ;  uncertainty k = 0.250793
        21        20        19        24     9        0.000000        0.282381         1    ;  uncertainty k = 0.657141
        21        20        19        24     9      180.000000       10.551064         2    ;  uncertainty k = 0.221306
        21        20        19        24     9        0.000000        1.077819         3    ;  uncertainty k = 0.516713
        21        20        19        24     9      180.000000        0.991474         4    ;  uncertainty k = 0.186199
        21        22        23        24     9        0.000000       -4.350974         1    ;  uncertainty k = 2.057076
        21        22        23        24     9      180.000000       -1.496991         2    ;  uncertainty k = 0.799614
        21        22        23        24     9        0.000000        0.281379         3    ;  uncertainty k = 0.338606
        21        22        23        24     9      180.000000       -0.187310         4    ;  uncertainty k = 0.252807
        21        22        23        28     9        0.000000       -6.987612         1    ;  uncertainty k = 0.982733
        21        22        23        28     9      180.000000       -0.297910         2    ;  uncertainty k = 0.446998
        21        22        23        28     9        0.000000        0.675891         3    ;  uncertainty k = 0.207193
        21        22        23        28     9      180.000000       -0.045061         4    ;  uncertainty k = 0.100310
        21        22        23        29     9        0.000000       -6.987612         1    ;  uncertainty k = 0.982733
        21        22        23        29     9      180.000000       -0.297910         2    ;  uncertainty k = 0.446998
        21        22        23        29     9        0.000000        0.675891         3    ;  uncertainty k = 0.207193
        21        22        23        29     9      180.000000       -0.045061         4    ;  uncertainty k = 0.100310
        21        22        25        32     9        0.000000       -4.178510         1    ;  uncertainty k = 0.410688
        21        22        25        32     9      180.000000       -2.187807         2    ;  uncertainty k = 0.398638
        21        22        25        32     9        0.000000        1.157619         3    ;  uncertainty k = 0.069416
        21        22        25        32     9      180.000000        0.075129         4    ;  uncertainty k = 0.097696
        21        22        25        33     9        0.000000       -4.178510         1    ;  uncertainty k = 0.410688
        21        22        25        33     9      180.000000       -2.187807         2    ;  uncertainty k = 0.398638
        21        22        25        33     9        0.000000        1.157619         3    ;  uncertainty k = 0.069416
        21        22        25        33     9      180.000000        0.075129         4    ;  uncertainty k = 0.097696
        21        22        25        34     9        0.000000       -4.178510         1    ;  uncertainty k = 0.410688
        21        22        25        34     9      180.000000       -2.187807         2    ;  uncertainty k = 0.398638
        21        22        25        34     9        0.000000        1.157619         3    ;  uncertainty k = 0.069416
        21        22        25        34     9      180.000000        0.075129         4    ;  uncertainty k = 0.097696
        22        23        24        30     9        0.000000       -0.446420         1    ;  uncertainty k = 0.389425
        22        23        24        30     9      180.000000       -0.446895         2    ;  uncertainty k = 0.443633
        22        23        24        30     9        0.000000        1.043482         3    ;  uncertainty k = 0.139130
        22        23        24        30     9      180.000000       -0.054508         4    ;  uncertainty k = 0.166266
        22        23        24        31     9        0.000000       -0.446420         1    ;  uncertainty k = 0.389425
        22        23        24        31     9      180.000000       -0.446895         2    ;  uncertainty k = 0.443633
        22        23        24        31     9        0.000000        1.043482         3    ;  uncertainty k = 0.139130
        22        23        24        31     9      180.000000       -0.054508         4    ;  uncertainty k = 0.166266
        23        22        21        26     9        0.000000       -4.951174         1    ;  uncertainty k = 1.276230
        23        22        21        26     9      180.000000       -0.772512         2    ;  uncertainty k = 0.594344
        23        22        21        26     9        0.000000        0.687582         3    ;  uncertainty k = 0.234878
        23        22        21        26     9      180.000000        0.165440         4    ;  uncertainty k = 0.126758
        23        22        21        27     9        0.000000       -4.951174         1    ;  uncertainty k = 1.276230
        23        22        21        27     9      180.000000       -0.772512         2    ;  uncertainty k = 0.594344
        23        22        21        27     9        0.000000        0.687582         3    ;  uncertainty k = 0.234878
        23        22        21        27     9      180.000000        0.165440         4    ;  uncertainty k = 0.126758
        23        22        25        32     9        0.000000       -4.259086         1    ;  uncertainty k = 0.974846
        23        22        25        32     9      180.000000       -2.027003         2    ;  uncertainty k = 0.417753
        23        22        25        32     9        0.000000        1.017651         3    ;  uncertainty k = 0.103023
        23        22        25        32     9      180.000000        0.065258         4    ;  uncertainty k = 0.091860
        23        22        25        33     9        0.000000       -4.259086         1    ;  uncertainty k = 0.974846
        23        22        25        33     9      180.000000       -2.027003         2    ;  uncertainty k = 0.417753
        23        22        25        33     9        0.000000        1.017651         3    ;  uncertainty k = 0.103023
        23        22        25        33     9      180.000000        0.065258         4    ;  uncertainty k = 0.091860
        23        22        25        34     9        0.000000       -4.259086         1    ;  uncertainty k = 0.974846
        23        22        25        34     9      180.000000       -2.027003         2    ;  uncertainty k = 0.417753
        23        22        25        34     9        0.000000        1.017651         3    ;  uncertainty k = 0.103023
        23        22        25        34     9      180.000000        0.065258         4    ;  uncertainty k = 0.091860
        24        23        22        25     9        0.000000       -2.366425         1    ;  uncertainty k = 0.799682
        24        23        22        25     9      180.000000       -0.858215         2    ;  uncertainty k = 0.575132
        24        23        22        25     9        0.000000        0.300582         3    ;  uncertainty k = 0.302529
        24        23        22        25     9      180.000000        0.326407         4    ;  uncertainty k = 0.081722
        25        22        21        26     9        0.000000       -2.503106         1    ;  uncertainty k = 0.610923
        25        22        21        26     9      180.000000       -1.207857         2    ;  uncertainty k = 0.461275
        25        22        21        26     9        0.000000        0.607046         3    ;  uncertainty k = 0.147323
        25        22        21        26     9      180.000000        0.178325         4    ;  uncertainty k = 0.088460
        25        22        21        27     9        0.000000       -2.503106         1    ;  uncertainty k = 0.610923
        25        22        21        27     9      180.000000       -1.207857         2    ;  uncertainty k = 0.461275
        25        22        21        27     9        0.000000        0.607046         3    ;  uncertainty k = 0.147323
        25        22        21        27     9      180.000000        0.178325         4    ;  uncertainty k = 0.088460
        25        22        23        28     9        0.000000       -3.143701         1    ;  uncertainty k = 0.576024
        25        22        23        28     9      180.000000       -1.381403         2    ;  uncertainty k = 0.223671
        25        22        23        28     9        0.000000        0.354530         3    ;  uncertainty k = 0.126408
        25        22        23        28     9      180.000000        0.148173         4    ;  uncertainty k = 0.137426
        25        22        23        29     9        0.000000       -3.143701         1    ;  uncertainty k = 0.576024
        25        22        23        29     9      180.000000       -1.381403         2    ;  uncertainty k = 0.223671
        25        22        23        29     9        0.000000        0.354530         3    ;  uncertainty k = 0.126408
        25        22        23        29     9      180.000000        0.148173         4    ;  uncertainty k = 0.137426
        28        23        24        30     9        0.000000       -0.690419         1    ;  uncertainty k = 0.249272
        28        23        24        30     9      180.000000        0.819889         2    ;  uncertainty k = 0.297922
        28        23        24        30     9        0.000000        0.232501         3    ;  uncertainty k = 0.086816
        28        23        24        30     9      180.000000       -0.277806         4    ;  uncertainty k = 0.067741
        28        23        24        31     9        0.000000       -0.690419         1    ;  uncertainty k = 0.249272
        28        23        24        31     9      180.000000        0.819889         2    ;  uncertainty k = 0.297922
        28        23        24        31     9        0.000000        0.232501         3    ;  uncertainty k = 0.086816
        28        23        24        31     9      180.000000       -0.277806         4    ;  uncertainty k = 0.067741
        29        23        24        30     9        0.000000       -0.690419         1    ;  uncertainty k = 0.249272
        29        23        24        30     9      180.000000        0.819889         2    ;  uncertainty k = 0.297922
        29        23        24        30     9        0.000000        0.232501         3    ;  uncertainty k = 0.086816
        29        23        24        30     9      180.000000       -0.277806         4    ;  uncertainty k = 0.067741
        29        23        24        31     9        0.000000       -0.690419         1    ;  uncertainty k = 0.249272
        29        23        24        31     9      180.000000        0.819889         2    ;  uncertainty k = 0.297922
        29        23        24        31     9        0.000000        0.232501         3    ;  uncertainty k = 0.086816
        29        23        24        31     9      180.000000       -0.277806         4    ;  uncertainty k = 0.067741
        35         7         6        40     9        0.000000        2.074967         1    ;  uncertainty k = 0.921198
        35         7         6        40     9      180.000000       -0.794571         2    ;  uncertainty k = 0.180952
        35         7         6        40     9        0.000000        0.466866         3    ;  uncertainty k = 0.273235
        35         7         6        40     9      180.000000        0.035537         4    ;  uncertainty k = 0.093276
        35         7         6        41     9        0.000000        2.074967         1    ;  uncertainty k = 0.921198
        35         7         6        41     9      180.000000       -0.794571         2    ;  uncertainty k = 0.180952
        35         7         6        41     9        0.000000        0.466866         3    ;  uncertainty k = 0.273235
        35         7         6        41     9      180.000000        0.035537         4    ;  uncertainty k = 0.093276
        35         7         8        43     9        0.000000        2.252951         1    ;  uncertainty k = 0.998081
        35         7         8        43     9      180.000000       -0.859965         2    ;  uncertainty k = 0.120364
        35         7         8        43     9        0.000000        0.534711         3    ;  uncertainty k = 0.219264
        35         7         8        43     9      180.000000        0.057172         4    ;  uncertainty k = 0.086080
        35         7         8        44     9        0.000000        2.252951         1    ;  uncertainty k = 0.998081
        35         7         8        44     9      180.000000       -0.859965         2    ;  uncertainty k = 0.120364
        35         7         8        44     9        0.000000        0.534711         3    ;  uncertainty k = 0.219264
        35         7         8        44     9      180.000000        0.057172         4    ;  uncertainty k = 0.086080
        35        37        38        47     9        0.000000        0.159650         1    ;  uncertainty k = 0.146342
        35        37        38        47     9      180.000000       -0.144813         2    ;  uncertainty k = 0.094204
        35        37        38        47     9        0.000000        0.215227         3    ;  uncertainty k = 0.050987
        35        37        38        47     9      180.000000        0.244118         4    ;  uncertainty k = 0.052779
        35        37        38        48     9        0.000000        0.159650         1    ;  uncertainty k = 0.146342
        35        37        38        48     9      180.000000       -0.144813         2    ;  uncertainty k = 0.094204
        35        37        38        48     9        0.000000        0.215227         3    ;  uncertainty k = 0.050987
        35        37        38        48     9      180.000000        0.244118         4    ;  uncertainty k = 0.052779
        35        37        38        49     9        0.000000        0.159650         1    ;  uncertainty k = 0.146342
        35        37        38        49     9      180.000000       -0.144813         2    ;  uncertainty k = 0.094204
        35        37        38        49     9        0.000000        0.215227         3    ;  uncertainty k = 0.050987
        35        37        38        49     9      180.000000        0.244118         4    ;  uncertainty k = 0.052779
        35        37        39        50     9        0.000000        0.159650         1    ;  uncertainty k = 0.146342
        35        37        39        50     9      180.000000       -0.144813         2    ;  uncertainty k = 0.094204
        35        37        39        50     9        0.000000        0.215227         3    ;  uncertainty k = 0.050987
        35        37        39        50     9      180.000000        0.244118         4    ;  uncertainty k = 0.052779
        35        37        39        51     9        0.000000        0.159650         1    ;  uncertainty k = 0.146342
        35        37        39        51     9      180.000000       -0.144813         2    ;  uncertainty k = 0.094204
        35        37        39        51     9        0.000000        0.215227         3    ;  uncertainty k = 0.050987
        35        37        39        51     9      180.000000        0.244118         4    ;  uncertainty k = 0.052779
        35        37        39        52     9        0.000000        0.159650         1    ;  uncertainty k = 0.146342
        35        37        39        52     9      180.000000       -0.144813         2    ;  uncertainty k = 0.094204
        35        37        39        52     9        0.000000        0.215227         3    ;  uncertainty k = 0.050987
        35        37        39        52     9      180.000000        0.244118         4    ;  uncertainty k = 0.052779
        36        35         7        42     9        0.000000       -0.646773         1    ;  uncertainty k = 0.397646
        36        35         7        42     9      180.000000        3.762065         2    ;  uncertainty k = 0.492695
        36        35         7        42     9        0.000000        1.483897         3    ;  uncertainty k = 0.235291
        36        35         7        42     9      180.000000       -0.025919         4    ;  uncertainty k = 0.096422
        36        35        37        38     9        0.000000        6.844605         1    ;  uncertainty k = 0.882211
        36        35        37        38     9      180.000000       19.790839         2    ;  uncertainty k = 0.105250
        36        35        37        38     9        0.000000       -0.220230         3    ;  uncertainty k = 0.161100
        36        35        37        38     9      180.000000       -1.123904         4    ;  uncertainty k = 0.136735
        36        35        37        39     9        0.000000        6.844605         1    ;  uncertainty k = 0.882211
        36        35        37        39     9      180.000000       19.790839         2    ;  uncertainty k = 0.105250
        36        35        37        39     9        0.000000       -0.220230         3    ;  uncertainty k = 0.161100
        36        35        37        39     9      180.000000       -1.123904         4    ;  uncertainty k = 0.136735
        37        35         7        42     9        0.000000       -0.975826         1    ;  uncertainty k = 0.419407
        37        35         7        42     9      180.000000        2.303974         2    ;  uncertainty k = 0.241164
        37        35         7        42     9        0.000000        0.361698         3    ;  uncertainty k = 0.116719
        37        35         7        42     9      180.000000        0.170218         4    ;  uncertainty k = 0.047482
        38        37        39        50     9        0.000000       -0.681994         1    ;  uncertainty k = 0.166187
        38        37        39        50     9      180.000000       -1.033629         2    ;  uncertainty k = 0.139918
        38        37        39        50     9        0.000000        1.312135         3    ;  uncertainty k = 0.057549
        38        37        39        50     9      180.000000        0.172025         4    ;  uncertainty k = 0.029064
        38        37        39        51     9        0.000000       -0.681994         1    ;  uncertainty k = 0.166187
        38        37        39        51     9      180.000000       -1.033629         2    ;  uncertainty k = 0.139918
        38        37        39        51     9        0.000000        1.312135         3    ;  uncertainty k = 0.057549
        38        37        39        51     9      180.000000        0.172025         4    ;  uncertainty k = 0.029064
        38        37        39        52     9        0.000000       -0.681994         1    ;  uncertainty k = 0.166187
        38        37        39        52     9      180.000000       -1.033629         2    ;  uncertainty k = 0.139918
        38        37        39        52     9        0.000000        1.312135         3    ;  uncertainty k = 0.057549
        38        37        39        52     9      180.000000        0.172025         4    ;  uncertainty k = 0.029064
        39        37        38        47     9        0.000000       -0.681994         1    ;  uncertainty k = 0.166187
        39        37        38        47     9      180.000000       -1.033629         2    ;  uncertainty k = 0.139918
        39        37        38        47     9        0.000000        1.312135         3    ;  uncertainty k = 0.057549
        39        37        38        47     9      180.000000        0.172025         4    ;  uncertainty k = 0.029064
        39        37        38        48     9        0.000000       -0.681994         1    ;  uncertainty k = 0.166187
        39        37        38        48     9      180.000000       -1.033629         2    ;  uncertainty k = 0.139918
        39        37        38        48     9        0.000000        1.312135         3    ;  uncertainty k = 0.057549
        39        37        38        48     9      180.000000        0.172025         4    ;  uncertainty k = 0.029064
        39        37        38        49     9        0.000000       -0.681994         1    ;  uncertainty k = 0.166187
        39        37        38        49     9      180.000000       -1.033629         2    ;  uncertainty k = 0.139918
        39        37        38        49     9        0.000000        1.312135         3    ;  uncertainty k = 0.057549
        39        37        38        49     9      180.000000        0.172025         4    ;  uncertainty k = 0.029064
        40         6         5        53     9        0.000000        1.226337         1    ;  uncertainty k = 0.333268
        40         6         5        53     9      180.000000       -0.558738         2    ;  uncertainty k = 0.229595
        40         6         5        53     9        0.000000       -0.052763         3    ;  uncertainty k = 0.147877
        40         6         5        53     9      180.000000        0.050691         4    ;  uncertainty k = 0.043442
        40         6         7        42     9        0.000000        1.275091         1    ;  uncertainty k = 0.308666
        40         6         7        42     9      180.000000       -0.191825         2    ;  uncertainty k = 0.161770
        40         6         7        42     9        0.000000       -0.005639         3    ;  uncertainty k = 0.106020
        40         6         7        42     9      180.000000        0.069270         4    ;  uncertainty k = 0.064132
        41         6         5        53     9        0.000000        1.226337         1    ;  uncertainty k = 0.333268
        41         6         5        53     9      180.000000       -0.558738         2    ;  uncertainty k = 0.229595
        41         6         5        53     9        0.000000       -0.052763         3    ;  uncertainty k = 0.147877
        41         6         5        53     9      180.000000        0.050691         4    ;  uncertainty k = 0.043442
        41         6         7        42     9        0.000000        1.275091         1    ;  uncertainty k = 0.308666
        41         6         7        42     9      180.000000       -0.191825         2    ;  uncertainty k = 0.161770
        41         6         7        42     9        0.000000       -0.005639         3    ;  uncertainty k = 0.106020
        41         6         7        42     9      180.000000        0.069270         4    ;  uncertainty k = 0.064132
        42         7         8        43     9        0.000000        1.375228         1    ;  uncertainty k = 0.292892
        42         7         8        43     9      180.000000       -0.112288         2    ;  uncertainty k = 0.227466
        42         7         8        43     9        0.000000       -0.024960         3    ;  uncertainty k = 0.142904
        42         7         8        43     9      180.000000        0.069958         4    ;  uncertainty k = 0.050452
        42         7         8        44     9        0.000000        1.375228         1    ;  uncertainty k = 0.292892
        42         7         8        44     9      180.000000       -0.112288         2    ;  uncertainty k = 0.227466
        42         7         8        44     9        0.000000       -0.024960         3    ;  uncertainty k = 0.142904
        42         7         8        44     9      180.000000        0.069958         4    ;  uncertainty k = 0.050452
        43         8         9        45     9        0.000000        2.326423         1    ;  uncertainty k = 0.676926
        43         8         9        45     9      180.000000       -0.090332         2    ;  uncertainty k = 0.159897
        43         8         9        45     9        0.000000        0.305999         3    ;  uncertainty k = 0.135712
        43         8         9        45     9      180.000000        0.130735         4    ;  uncertainty k = 0.038641
        43         8         9        46     9        0.000000        2.326423         1    ;  uncertainty k = 0.676926
        43         8         9        46     9      180.000000       -0.090332         2    ;  uncertainty k = 0.159897
        43         8         9        46     9        0.000000        0.305999         3    ;  uncertainty k = 0.135712
        43         8         9        46     9      180.000000        0.130735         4    ;  uncertainty k = 0.038641
        44         8         9        45     9        0.000000        2.326423         1    ;  uncertainty k = 0.676926
        44         8         9        45     9      180.000000       -0.090332         2    ;  uncertainty k = 0.159897
        44         8         9        45     9        0.000000        0.305999         3    ;  uncertainty k = 0.135712
        44         8         9        45     9      180.000000        0.130735         4    ;  uncertainty k = 0.038641
        44         8         9        46     9        0.000000        2.326423         1    ;  uncertainty k = 0.676926
        44         8         9        46     9      180.000000       -0.090332         2    ;  uncertainty k = 0.159897
        44         8         9        46     9        0.000000        0.305999         3    ;  uncertainty k = 0.135712
        44         8         9        46     9      180.000000        0.130735         4    ;  uncertainty k = 0.038641
        54        55        59        60     9        0.000000        0.059925         1    ;  uncertainty k = 0.921617
        54        55        59        60     9      180.000000       14.689775         2    ;  uncertainty k = 0.530059
        54        55        59        60     9        0.000000      -10.315831         3    ;  uncertainty k = 2.618302
        54        55        59        60     9      180.000000        1.763560         4    ;  uncertainty k = 0.679675
        54        55        59        64     9        0.000000        0.236357         1    ;  uncertainty k = 0.808407
        54        55        59        64     9      180.000000        7.109649         2    ;  uncertainty k = 0.344484
        54        55        59        64     9        0.000000        0.677743         3    ;  uncertainty k = 0.553276
        54        55        59        64     9      180.000000        0.856844         4    ;  uncertainty k = 0.221402
        54        56        60        59     9        0.000000        0.684698         1    ;  uncertainty k = 0.675094
        54        56        60        59     9      180.000000       15.330018         2    ;  uncertainty k = 0.564496
        54        56        60        59     9        0.000000       -7.160063         3    ;  uncertainty k = 2.208634
        54        56        60        59     9      180.000000        0.841697         4    ;  uncertainty k = 0.376399
        54        56        60        61     9        0.000000        1.791955         1    ;  uncertainty k = 1.453308
        54        56        60        61     9      180.000000        4.787564         2    ;  uncertainty k = 0.777845
        54        56        60        61     9        0.000000        0.696123         3    ;  uncertainty k = 0.407370
        54        56        60        61     9      180.000000        0.398930         4    ;  uncertainty k = 0.153205
        55        54        56        58     9        0.000000        2.917304         1    ;  uncertainty k = 1.253410
        55        54        56        58     9      180.000000        7.453846         2    ;  uncertainty k = 0.688376
        55        54        56        58     9        0.000000        1.604819         3    ;  uncertainty k = 0.733877
        55        54        56        58     9      180.000000       -0.064640         4    ;  uncertainty k = 0.294627
        55        54        56        60     9        0.000000       -0.337464         1    ;  uncertainty k = 0.420361
        55        54        56        60     9      180.000000       14.910922         2    ;  uncertainty k = 0.520001
        55        54        56        60     9        0.000000       -6.637524         3    ;  uncertainty k = 1.330629
        55        54        56        60     9      180.000000        0.954778         4    ;  uncertainty k = 0.610533
        55        59        60        56     9        0.000000       -0.311258         1    ;  uncertainty k = 0.569852
        55        59        60        56     9      180.000000       12.050887         2    ;  uncertainty k = 0.897536
        55        59        60        56     9        0.000000       -3.017042         3    ;  uncertainty k = 1.314288
        55        59        60        56     9      180.000000        1.484264         4    ;  uncertainty k = 0.765066
        55        59        60        61     9        0.000000        0.265788         1    ;  uncertainty k = 0.543494
        55        59        60        61     9      180.000000        7.743784         2    ;  uncertainty k = 0.374262
        55        59        60        61     9        0.000000        0.215398         3    ;  uncertainty k = 0.545397
        55        59        60        61     9      180.000000        1.281960         4    ;  uncertainty k = 0.403582
        55        59        64        63     9        0.000000        0.017228         1    ;  uncertainty k = 0.572558
        55        59        64        63     9      180.000000        8.865385         2    ;  uncertainty k = 0.266855
        55        59        64        63     9        0.000000        0.773997         3    ;  uncertainty k = 0.261178
        55        59        64        63     9      180.000000        1.318305         4    ;  uncertainty k = 0.159964
        55        59        64        68     9        0.000000        0.304355         1    ;  uncertainty k = 0.655142
        55        59        64        68     9      180.000000        5.656710         2    ;  uncertainty k = 0.508316
        55        59        64        68     9        0.000000        1.114776         3    ;  uncertainty k = 0.307625
        55        59        64        68     9      180.000000        0.795415         4    ;  uncertainty k = 0.229410
        56        54        55        57     9        0.000000        0.538352         1    ;  uncertainty k = 0.970170
        56        54        55        57     9      180.000000       14.217128         2    ;  uncertainty k = 0.293308
        56        54        55        57     9        0.000000        1.480636         3    ;  uncertainty k = 0.383551
        56        54        55        57     9      180.000000        0.851735         4    ;  uncertainty k = 0.260378
        56        54        55        59     9        0.000000       -0.182044         1    ;  uncertainty k = 0.356893
        56        54        55        59     9      180.000000       21.179323         2    ;  uncertainty k = 0.350823
        56        54        55        59     9        0.000000       -5.746541         3    ;  uncertainty k = 0.940769
        56        54        55        59     9      180.000000        1.242924         4    ;  uncertainty k = 0.553800
        56        60        59        64     9        0.000000        0.143107         1    ;  uncertainty k = 0.409435
        56        60        59        64     9      180.000000        8.490430         2    ;  uncertainty k = 0.357150
        56        60        59        64     9        0.000000        0.129041         3    ;  uncertainty k = 0.476277
        56        60        59        64     9      180.000000        1.160730         4    ;  uncertainty k = 0.332581
        56        60        61        62     9        0.000000       -0.304374         1    ;  uncertainty k = 0.445546
        56        60        61        62     9      180.000000        6.522303         2    ;  uncertainty k = 0.631936
        56        60        61        62     9        0.000000        0.922069         3    ;  uncertainty k = 0.160607
        56        60        61        62     9      180.000000        1.136251         4    ;  uncertainty k = 0.177914
        56        60        61        65     9        0.000000       -0.037503         1    ;  uncertainty k = 0.516725
        56        60        61        65     9      180.000000        7.641121         2    ;  uncertainty k = 0.378891
        56        60        61        65     9        0.000000        1.585412         3    ;  uncertainty k = 0.231847
        56        60        61        65     9      180.000000        1.117674         4    ;  uncertainty k = 0.133873
        57        55        59        60     9        0.000000       -0.436157         1    ;  uncertainty k = 0.805250
        57        55        59        60     9      180.000000        8.868569         2    ;  uncertainty k = 0.623459
        57        55        59        60     9        0.000000        1.158726         3    ;  uncertainty k = 0.545294
        57        55        59        60     9      180.000000        0.290832         4    ;  uncertainty k = 0.252939
        57        55        59        64     9        0.000000        0.478558         1    ;  uncertainty k = 0.616182
        57        55        59        64     9      180.000000        4.532561         2    ;  uncertainty k = 0.633195
        57        55        59        64     9        0.000000        1.471720         3    ;  uncertainty k = 0.229745
        57        55        59        64     9      180.000000        0.090948         4    ;  uncertainty k = 0.159792
        58        56        60        59     9        0.000000        4.370850         1    ;  uncertainty k = 2.363764
        58        56        60        59     9      180.000000        5.129617         2    ;  uncertainty k = 0.865041
        58        56        60        59     9        0.000000        1.257571         3    ;  uncertainty k = 0.360661
        58        56        60        59     9      180.000000        0.204359         4    ;  uncertainty k = 0.187108
        58        56        60        61     9        0.000000        1.833572         1    ;  uncertainty k = 1.882161
        58        56        60        61     9      180.000000        1.421005         2    ;  uncertainty k = 0.917530
        58        56        60        61     9        0.000000        1.012322         3    ;  uncertainty k = 0.603244
        58        56        60        61     9      180.000000        0.130048         4    ;  uncertainty k = 0.281301
        59        60        61        62     9        0.000000       -0.303170         1    ;  uncertainty k = 0.391639
        59        60        61        62     9      180.000000        8.890368         2    ;  uncertainty k = 0.764366
        59        60        61        62     9        0.000000       -0.624739         3    ;  uncertainty k = 0.232589
        59        60        61        62     9      180.000000        0.879619         4    ;  uncertainty k = 0.281630
        59        60        61        65     9        0.000000       -0.000865         1    ;  uncertainty k = 0.317093
        59        60        61        65     9      180.000000        9.050845         2    ;  uncertainty k = 0.724788
        59        60        61        65     9        0.000000        1.512596         3    ;  uncertainty k = 0.097042
        59        60        61        65     9      180.000000        1.264551         4    ;  uncertainty k = 0.315492
        59        64        63        62     9        0.000000        0.101093         1    ;  uncertainty k = 0.269745
        59        64        63        62     9      180.000000       12.475598         2    ;  uncertainty k = 0.433350
        59        64        63        62     9        0.000000        0.156783         3    ;  uncertainty k = 0.472182
        59        64        63        62     9      180.000000        1.053714         4    ;  uncertainty k = 0.460826
        59        64        63        67     9        0.000000       -0.091049         1    ;  uncertainty k = 0.273960
        59        64        63        67     9      180.000000       12.879173         2    ;  uncertainty k = 0.411485
        59        64        63        67     9        0.000000        1.646060         3    ;  uncertainty k = 0.315884
        59        64        63        67     9      180.000000        1.435432         4    ;  uncertainty k = 0.320623
        60        59        64        63     9        0.000000        0.044497         1    ;  uncertainty k = 0.324089
        60        59        64        63     9      180.000000       14.012070         2    ;  uncertainty k = 0.129640
        60        59        64        63     9        0.000000       -1.694475         3    ;  uncertainty k = 0.262860
        60        59        64        63     9      180.000000        0.736547         4    ;  uncertainty k = 0.176108
        60        59        64        68     9        0.000000        0.005281         1    ;  uncertainty k = 0.484498
        60        59        64        68     9      180.000000        7.153879         2    ;  uncertainty k = 0.778192
        60        59        64        68     9        0.000000        1.405879         3    ;  uncertainty k = 0.404977
        60        59        64        68     9      180.000000        1.327375         4    ;  uncertainty k = 0.365132
        60        61        62        63     9        0.000000        0.128915         1    ;  uncertainty k = 0.149708
        60        61        62        63     9      180.000000       12.030638         2    ;  uncertainty k = 0.397302
        60        61        62        63     9        0.000000        0.204538         3    ;  uncertainty k = 0.613950
        60        61        62        63     9      180.000000        1.118610         4    ;  uncertainty k = 0.416223
        60        61        62        66     9        0.000000        0.248970         1    ;  uncertainty k = 0.269468
        60        61        62        66     9      180.000000        7.719944         2    ;  uncertainty k = 0.451668
        60        61        62        66     9        0.000000        1.540632         3    ;  uncertainty k = 0.389321
        60        61        62        66     9      180.000000        1.582809         4    ;  uncertainty k = 0.192425
        61        60        59        64     9        0.000000       -0.620752         1    ;  uncertainty k = 0.534058
        61        60        59        64     9      180.000000        7.811547         2    ;  uncertainty k = 0.711548
        61        60        59        64     9        0.000000       -0.093837         3    ;  uncertainty k = 0.432900
        61        60        59        64     9      180.000000        1.071662         4    ;  uncertainty k = 0.341931
        61        62        63        64     9        0.000000       -0.218955         1    ;  uncertainty k = 0.390012
        61        62        63        64     9      180.000000        8.080691         2    ;  uncertainty k = 0.444578
        61        62        63        64     9        0.000000       -0.039049         3    ;  uncertainty k = 0.583036
        61        62        63        64     9      180.000000        1.257309         4    ;  uncertainty k = 0.293475
        61        62        63        67     9        0.000000        0.131797         1    ;  uncertainty k = 0.247987
        61        62        63        67     9      180.000000        8.450517         2    ;  uncertainty k = 0.734241
        61        62        63        67     9        0.000000        1.416123         3    ;  uncertainty k = 0.481893
        61        62        63        67     9      180.000000        1.585453         4    ;  uncertainty k = 0.252112
        62        63        64        68     9        0.000000        0.051258         1    ;  uncertainty k = 0.314375
        62        63        64        68     9      180.000000        7.281488         2    ;  uncertainty k = 0.631903
        62        63        64        68     9        0.000000        1.552755         3    ;  uncertainty k = 0.389650
        62        63        64        68     9      180.000000        1.654485         4    ;  uncertainty k = 0.161634
        63        62        61        65     9        0.000000        0.030070         1    ;  uncertainty k = 0.298549
        63        62        61        65     9      180.000000       14.632207         2    ;  uncertainty k = 0.675297
        63        62        61        65     9        0.000000        1.668180         3    ;  uncertainty k = 0.300897
        63        62        61        65     9      180.000000        1.429286         4    ;  uncertainty k = 0.463766
        64        63        62        66     9        0.000000       -0.059292         1    ;  uncertainty k = 0.040994
        64        63        62        66     9      180.000000        5.418830         2    ;  uncertainty k = 0.504590
        64        63        62        66     9        0.000000        1.266983         3    ;  uncertainty k = 0.292324
        64        63        62        66     9      180.000000        1.316968         4    ;  uncertainty k = 0.208414
        65        61        62        66     9        0.000000       -0.384640         1    ;  uncertainty k = 0.153909
        65        61        62        66     9      180.000000        9.766654         2    ;  uncertainty k = 0.431897
        65        61        62        66     9        0.000000        0.974346         3    ;  uncertainty k = 0.216070
        65        61        62        66     9      180.000000        1.064087         4    ;  uncertainty k = 0.253608
        66        62        63        67     9        0.000000        0.051623         1    ;  uncertainty k = 0.149798
        66        62        63        67     9      180.000000        6.726952         2    ;  uncertainty k = 0.410780
        66        62        63        67     9        0.000000        0.673567         3    ;  uncertainty k = 0.357627
        66        62        63        67     9      180.000000        0.924798         4    ;  uncertainty k = 0.222140
        67        63        64        68     9        0.000000       -0.310969         1    ;  uncertainty k = 0.368809
        67        63        64        68     9      180.000000        8.377447         2    ;  uncertainty k = 0.417473
        67        63        64        68     9        0.000000        0.792141         3    ;  uncertainty k = 0.237204
        67        63        64        68     9      180.000000        1.037578         4    ;  uncertainty k = 0.319208

[ dihedrals ] ; impropers
;       ai        aj        ak        al funct           phase               k        pn
         1         2         4        54     4      180.000000       51.867965         2    ;  uncertainty k = 0.029738
         1         4        54         2     4      180.000000       51.867965         2    ;  uncertainty k = 0.029738
         1        54         2         4     4      180.000000       51.867965         2    ;  uncertainty k = 0.029738
        11        10        12        13     4      180.000000       49.476644         2    ;  uncertainty k = 0.014914
        11        12        13        10     4      180.000000       49.476644         2    ;  uncertainty k = 0.014914
        11        13        10        12     4      180.000000       49.476644         2    ;  uncertainty k = 0.014914
        12        11        14        15     4      180.000000        4.762177         2    ;  uncertainty k = 0.485670
        12        14        15        11     4      180.000000        4.762177         2    ;  uncertainty k = 0.485670
        12        15        11        14     4      180.000000        4.762177         2    ;  uncertainty k = 0.485670
        19        14        20        24     4      180.000000       10.302524         2    ;  uncertainty k = 0.235813
        19        20        24        14     4      180.000000       10.302524         2    ;  uncertainty k = 0.235813
        19        24        14        20     4      180.000000       10.302524         2    ;  uncertainty k = 0.235813
        20        15        19        21     4      180.000000        2.894551         2    ;  uncertainty k = 0.672593
        20        19        21        15     4      180.000000        2.894551         2    ;  uncertainty k = 0.672593
        20        21        15        19     4      180.000000        2.894551         2    ;  uncertainty k = 0.672593
        35         7        36        37     4      180.000000       51.316640         2    ;  uncertainty k = 0.028239
        35        36        37         7     4      180.000000       51.316640         2    ;  uncertainty k = 0.028239
        35        37         7        36     4      180.000000       51.316640         2    ;  uncertainty k = 0.028239
        54         1        55        56     4      180.000000        2.834076         2    ;  uncertainty k = 0.415998
        54        55        56         1     4      180.000000        2.834076         2    ;  uncertainty k = 0.415998
        54        56         1        55     4      180.000000        2.834076         2    ;  uncertainty k = 0.415998
        55        54        57        59     4      180.000000        0.841579         2    ;  uncertainty k = 1.167185
        55        57        59        54     4      180.000000        0.841579         2    ;  uncertainty k = 1.167185
        55        59        54        57     4      180.000000        0.841579         2    ;  uncertainty k = 1.167185
        60        56        59        61     4      180.000000        0.413765         2    ;  uncertainty k = 0.925207
        60        59        61        56     4      180.000000        0.413765         2    ;  uncertainty k = 0.925207
        60        61        56        59     4      180.000000        0.413765         2    ;  uncertainty k = 0.925207
        61        60        62        65     4      180.000000       11.517659         2    ;  uncertainty k = 0.120446
        61        62        65        60     4      180.000000       11.517659         2    ;  uncertainty k = 0.120446
        61        65        60        62     4      180.000000       11.517659         2    ;  uncertainty k = 0.120446
        62        61        63        66     4      180.000000        1.148701         2    ;  uncertainty k = 0.672535
        62        63        66        61     4      180.000000        1.148701         2    ;  uncertainty k = 0.672535
        62        66        61        63     4      180.000000        1.148701         2    ;  uncertainty k = 0.672535
        63        62        64        67     4      180.000000       12.058590         2    ;  uncertainty k = 0.077273
        63        64        67        62     4      180.000000       12.058590         2    ;  uncertainty k = 0.077273
        63        67        62        64     4      180.000000       12.058590         2    ;  uncertainty k = 0.077273
        64        59        63        68     4      180.000000        3.475222         2    ;  uncertainty k = 0.158383
        64        63        68        59     4      180.000000        3.475222         2    ;  uncertainty k = 0.158383
        64        68        59        63     4      180.000000        3.475222         2    ;  uncertainty k = 0.158383

[ pairs ]
;       ai        aj funct
         1         5     1
         1         9     1
         1        17     1
         1        57     1
         1        58     1
         1        59     1
         1        60     1
         2         6     1
         2         8     1
         2        10     1
         2        45     1
         2        46     1
         2        53     1
         2        55     1
         2        56     1
         3         4     1
         3         7     1
         3        11     1
         3        18     1
         3        40     1
         3        41     1
         3        43     1
         3        44     1
         3        54     1
         4        16     1
         4        55     1
         4        56     1
         5         8     1
         5        12     1
         5        13     1
         5        16     1
         5        35     1
         5        42     1
         5        45     1
         5        46     1
         6         9     1
         6        11     1
         6        17     1
         6        18     1
         6        36     1
         6        37     1
         6        43     1
         6        44     1
         7        10     1
         7        38     1
         7        39     1
         7        45     1
         7        46     1
         7        53     1
         8        17     1
         8        36     1
         8        37     1
         8        40     1
         8        41     1
         9        10     1
         9        16     1
         9        35     1
         9        42     1
         9        53     1
        10        14     1
        10        15     1
        10        17     1
        10        40     1
        10        41     1
        11        19     1
        11        20     1
        11        53     1
        12        18     1
        12        21     1
        12        24     1
        13        14     1
        13        15     1
        13        18     1
        14        21     1
        14        23     1
        14        30     1
        14        31     1
        15        22     1
        15        24     1
        15        26     1
        15        27     1
        16        17     1
        16        54     1
        17        45     1
        17        46     1
        17        53     1
        18        53     1
        19        22     1
        19        26     1
        19        27     1
        19        28     1
        19        29     1
        20        23     1
        20        25     1
        20        30     1
        20        31     1
        21        24     1
        21        28     1
        21        29     1
        21        32     1
        21        33     1
        21        34     1
        22        30     1
        22        31     1
        23        26     1
        23        27     1
        23        32     1
        23        33     1
        23        34     1
        24        25     1
        25        26     1
        25        27     1
        25        28     1
        25        29     1
        28        30     1
        28        31     1
        29        30     1
        29        31     1
        35        40     1
        35        41     1
        35        43     1
        35        44     1
        35        47     1
        35        48     1
        35        49     1
        35        50     1
        35        51     1
        35        52     1
        36        38     1
        36        39     1
        36        42     1
        37        42     1
        38        50     1
        38        51     1
        38        52     1
        39        47     1
        39        48     1
        39        49     1
        40        42     1
        40        53     1
        41        42     1
        41        53     1
        42        43     1
        42        44     1
        43        45     1
        43        46     1
        44        45     1
        44        46     1
        54        61     1
        54        64     1
        55        58     1
        55        61     1
        55        63     1
        55        68     1
        56        57     1
        56        62     1
        56        64     1
        56        65     1
        57        60     1
        57        64     1
        58        59     1
        58        61     1
        59        62     1
        59        65     1
        59        67     1
        60        63     1
        60        66     1
        60        68     1
        61        64     1
        61        67     1
        62        68     1
        63        65     1
        64        66     1
        65        66     1
        66        67     1
        67        68     1
