; ITP file created by ByteFF-joint-25, 2025-07-14 11:37:38.096926

[ atomtypes ]
;name           bonded.type        at.num        mass        charge   ptype           sigma         epsilon
 c0bf                                   6      0.0000       0.00000       A     3.31480e-01     4.12968e-01    ;  uncertainty sigma = 0.000011, epsilon = 0.001005
 n1bf                                   7      0.0000       0.00000       A     3.27041e-01     4.89054e-01    ;  uncertainty sigma = 0.000025, epsilon = 0.001835
 c2bf                                   6      0.0000       0.00000       A     3.39788e-01     4.50841e-01    ;  uncertainty sigma = 0.000020, epsilon = 0.000913
 o3bf                                   8      0.0000       0.00000       A     3.04807e-01     6.13015e-01    ;  uncertainty sigma = 0.000014, epsilon = 0.001219
 c4bf                                   6      0.0000       0.00000       A     3.39779e-01     4.50691e-01    ;  uncertainty sigma = 0.000021, epsilon = 0.001071
 c5bf                                   6      0.0000       0.00000       A     3.39785e-01     4.51177e-01    ;  uncertainty sigma = 0.000013, epsilon = 0.000568
 c6bf                                   6      0.0000       0.00000       A     3.39788e-01     4.50813e-01    ;  uncertainty sigma = 0.000005, epsilon = 0.001015
 c7bf                                   6      0.0000       0.00000       A     3.39784e-01     4.51089e-01    ;  uncertainty sigma = 0.000005, epsilon = 0.000646
 c8bf                                   6      0.0000       0.00000       A     3.39763e-01     4.50989e-01    ;  uncertainty sigma = 0.000009, epsilon = 0.000663
 n9bf                                   7      0.0000       0.00000       A     3.27037e-01     4.89849e-01    ;  uncertainty sigma = 0.000029, epsilon = 0.003194
 c10bf                                  6      0.0000       0.00000       A     3.31529e-01     4.12690e-01    ;  uncertainty sigma = 0.000018, epsilon = 0.001128
 c11bf                                  6      0.0000       0.00000       A     3.31525e-01     4.13652e-01    ;  uncertainty sigma = 0.000013, epsilon = 0.001225
 o12bf                                  8      0.0000       0.00000       A     3.04890e-01     6.12219e-01    ;  uncertainty sigma = 0.000024, epsilon = 0.000874
 n13bf                                  7      0.0000       0.00000       A     3.38354e-01     3.93161e-01    ;  uncertainty sigma = 0.000020, epsilon = 0.001245
 s14bf                                 16      0.0000       0.00000       A     3.53288e-01     1.18179e+00    ;  uncertainty sigma = 0.000032, epsilon = 0.002346
 h15bf                                  1      0.0000       0.00000       A     1.10669e-01     4.16163e-02    ;  uncertainty sigma = 0.000085, epsilon = 0.000806
 h16bf                                  1      0.0000       0.00000       A     2.42171e-01     8.67682e-02    ;  uncertainty sigma = 0.000031, epsilon = 0.001303
 h17bf                                  1      0.0000       0.00000       A     1.10666e-01     4.15404e-02    ;  uncertainty sigma = 0.000113, epsilon = 0.000907
 c18bf                                  6      0.0000       0.00000       A     3.31531e-01     4.13284e-01    ;  uncertainty sigma = 0.000022, epsilon = 0.000692
 c19bf                                  6      0.0000       0.00000       A     3.31510e-01     4.13232e-01    ;  uncertainty sigma = 0.000021, epsilon = 0.000971
 c20bf                                  6      0.0000       0.00000       A     3.39772e-01     4.51291e-01    ;  uncertainty sigma = 0.000007, epsilon = 0.001369
 n21bf                                  7      0.0000       0.00000       A     3.36491e-01     3.58344e-01    ;  uncertainty sigma = 0.000019, epsilon = 0.001758
 c22bf                                  6      0.0000       0.00000       A     3.39770e-01     4.51225e-01    ;  uncertainty sigma = 0.000009, epsilon = 0.000671
 c23bf                                  6      0.0000       0.00000       A     3.39762e-01     4.51164e-01    ;  uncertainty sigma = 0.000008, epsilon = 0.001424
 c24bf                                  6      0.0000       0.00000       A     3.39770e-01     4.51318e-01    ;  uncertainty sigma = 0.000003, epsilon = 0.000740
 h25bf                                  1      0.0000       0.00000       A     2.42250e-01     8.62902e-02    ;  uncertainty sigma = 0.000037, epsilon = 0.000964
 h26bf                                  1      0.0000       0.00000       A     2.42250e-01     8.62902e-02    ;  uncertainty sigma = 0.000037, epsilon = 0.000964
 h27bf                                  1      0.0000       0.00000       A     2.42218e-01     8.69005e-02    ;  uncertainty sigma = 0.000021, epsilon = 0.000739
 h28bf                                  1      0.0000       0.00000       A     2.42218e-01     8.69005e-02    ;  uncertainty sigma = 0.000021, epsilon = 0.000739
 h29bf                                  1      0.0000       0.00000       A     2.60015e-01     8.68230e-02    ;  uncertainty sigma = 0.000020, epsilon = 0.000739
 h30bf                                  1      0.0000       0.00000       A     2.60015e-01     8.68230e-02    ;  uncertainty sigma = 0.000020, epsilon = 0.000739
 h31bf                                  1      0.0000       0.00000       A     2.42198e-01     8.68693e-02    ;  uncertainty sigma = 0.000014, epsilon = 0.000543
 h32bf                                  1      0.0000       0.00000       A     2.42198e-01     8.68693e-02    ;  uncertainty sigma = 0.000014, epsilon = 0.000543
 h33bf                                  1      0.0000       0.00000       A     2.42198e-01     8.68693e-02    ;  uncertainty sigma = 0.000014, epsilon = 0.000543
 c34bf                                  6      0.0000       0.00000       A     3.31545e-01     4.13066e-01    ;  uncertainty sigma = 0.000011, epsilon = 0.001034
 o35bf                                  8      0.0000       0.00000       A     3.04819e-01     6.12467e-01    ;  uncertainty sigma = 0.000013, epsilon = 0.000996
 n36bf                                  7      0.0000       0.00000       A     3.18136e-01     6.84509e-01    ;  uncertainty sigma = 0.000019, epsilon = 0.001339
 c37bf                                  6      0.0000       0.00000       A     3.39777e-01     4.50876e-01    ;  uncertainty sigma = 0.000006, epsilon = 0.000504
 c38bf                                  6      0.0000       0.00000       A     3.39777e-01     4.50876e-01    ;  uncertainty sigma = 0.000006, epsilon = 0.000504
 h39bf                                  1      0.0000       0.00000       A     2.60016e-01     8.65219e-02    ;  uncertainty sigma = 0.000021, epsilon = 0.000613
 h40bf                                  1      0.0000       0.00000       A     2.60016e-01     8.65219e-02    ;  uncertainty sigma = 0.000021, epsilon = 0.000613
 h41bf                                  1      0.0000       0.00000       A     2.60030e-01     8.70270e-02    ;  uncertainty sigma = 0.000011, epsilon = 0.000538
 h42bf                                  1      0.0000       0.00000       A     2.60020e-01     8.66352e-02    ;  uncertainty sigma = 0.000016, epsilon = 0.000625
 h43bf                                  1      0.0000       0.00000       A     2.60020e-01     8.66352e-02    ;  uncertainty sigma = 0.000016, epsilon = 0.000625
 h44bf                                  1      0.0000       0.00000       A     2.60024e-01     8.67210e-02    ;  uncertainty sigma = 0.000008, epsilon = 0.000629
 h45bf                                  1      0.0000       0.00000       A     2.60024e-01     8.67210e-02    ;  uncertainty sigma = 0.000008, epsilon = 0.000629
 h46bf                                  1      0.0000       0.00000       A     2.42196e-01     8.67627e-02    ;  uncertainty sigma = 0.000011, epsilon = 0.000510
 h47bf                                  1      0.0000       0.00000       A     2.42196e-01     8.67627e-02    ;  uncertainty sigma = 0.000011, epsilon = 0.000510
 h48bf                                  1      0.0000       0.00000       A     2.42196e-01     8.67627e-02    ;  uncertainty sigma = 0.000011, epsilon = 0.000510
 h49bf                                  1      0.0000       0.00000       A     2.42196e-01     8.67627e-02    ;  uncertainty sigma = 0.000011, epsilon = 0.000510
 h50bf                                  1      0.0000       0.00000       A     2.42196e-01     8.67627e-02    ;  uncertainty sigma = 0.000011, epsilon = 0.000510
 h51bf                                  1      0.0000       0.00000       A     2.42196e-01     8.67627e-02    ;  uncertainty sigma = 0.000011, epsilon = 0.000510
 h52bf                                  1      0.0000       0.00000       A     2.42144e-01     8.68216e-02    ;  uncertainty sigma = 0.000035, epsilon = 0.001353
 c53bf                                  6      0.0000       0.00000       A     3.31482e-01     4.13425e-01    ;  uncertainty sigma = 0.000009, epsilon = 0.001190
 c54bf                                  6      0.0000       0.00000       A     3.31511e-01     4.14611e-01    ;  uncertainty sigma = 0.000028, epsilon = 0.001050
 n55bf                                  7      0.0000       0.00000       A     3.20639e-01     8.52070e-01    ;  uncertainty sigma = 0.000028, epsilon = 0.001261
 h56bf                                  1      0.0000       0.00000       A     1.10672e-01     4.11046e-02    ;  uncertainty sigma = 0.000083, epsilon = 0.000803
 c57bf                                  6      0.0000       0.00000       A     3.31533e-01     4.13415e-01    ;  uncertainty sigma = 0.000008, epsilon = 0.001233
 c58bf                                  6      0.0000       0.00000       A     3.31540e-01     4.13145e-01    ;  uncertainty sigma = 0.000008, epsilon = 0.000969
 c59bf                                  6      0.0000       0.00000       A     3.31528e-01     4.13168e-01    ;  uncertainty sigma = 0.000007, epsilon = 0.000631
 c60bf                                  6      0.0000       0.00000       A     3.31525e-01     4.13509e-01    ;  uncertainty sigma = 0.000007, epsilon = 0.000490
 c61bf                                  6      0.0000       0.00000       A     3.31524e-01     4.13100e-01    ;  uncertainty sigma = 0.000006, epsilon = 0.000667
 c62bf                                  6      0.0000       0.00000       A     3.31524e-01     4.13397e-01    ;  uncertainty sigma = 0.000009, epsilon = 0.000564
 h63bf                                  1      0.0000       0.00000       A     2.62566e-01     6.69385e-02    ;  uncertainty sigma = 0.000009, epsilon = 0.000522
 h64bf                                  1      0.0000       0.00000       A     2.62553e-01     6.70581e-02    ;  uncertainty sigma = 0.000010, epsilon = 0.000690
 cl65bf                                17      0.0000       0.00000       A     3.46619e-01     1.10433e+00    ;  uncertainty sigma = 0.000017, epsilon = 0.000824
 h66bf                                  1      0.0000       0.00000       A     2.62556e-01     6.69819e-02    ;  uncertainty sigma = 0.000018, epsilon = 0.000484
 c67bf                                  6      0.0000       0.00000       A     3.31505e-01     4.13977e-01    ;  uncertainty sigma = 0.000018, epsilon = 0.001398
 o68bf                                  8      0.0000       0.00000       A     3.04819e-01     6.12279e-01    ;  uncertainty sigma = 0.000020, epsilon = 0.001036
 n69bf                                  7      0.0000       0.00000       A     3.18095e-01     6.83978e-01    ;  uncertainty sigma = 0.000004, epsilon = 0.000938
 c70bf                                  6      0.0000       0.00000       A     3.39783e-01     4.50919e-01    ;  uncertainty sigma = 0.000004, epsilon = 0.000483
 c71bf                                  6      0.0000       0.00000       A     3.39783e-01     4.50919e-01    ;  uncertainty sigma = 0.000004, epsilon = 0.000483
 h72bf                                  1      0.0000       0.00000       A     2.42197e-01     8.67794e-02    ;  uncertainty sigma = 0.000012, epsilon = 0.000526
 h73bf                                  1      0.0000       0.00000       A     2.42197e-01     8.67794e-02    ;  uncertainty sigma = 0.000012, epsilon = 0.000526
 h74bf                                  1      0.0000       0.00000       A     2.42197e-01     8.67794e-02    ;  uncertainty sigma = 0.000012, epsilon = 0.000526
 h75bf                                  1      0.0000       0.00000       A     2.42197e-01     8.67794e-02    ;  uncertainty sigma = 0.000012, epsilon = 0.000526
 h76bf                                  1      0.0000       0.00000       A     2.42197e-01     8.67797e-02    ;  uncertainty sigma = 0.000012, epsilon = 0.000526
 h77bf                                  1      0.0000       0.00000       A     2.42197e-01     8.67796e-02    ;  uncertainty sigma = 0.000012, epsilon = 0.000526

[ moleculetype ]
;name             nrexcl
 MOL                   3

[ atoms ]
;       nr            type      resi   res      atom      cgnr      charge          mass ; qtot
         1            c0bf         1   UNL        c0         1     0.69498       12.0110 ; qtot    0.695
         2            n1bf         1   UNL        n1         2    -0.54844       14.0070 ; qtot    0.147
         3            c2bf         1   UNL        c2         3     0.09752       12.0110 ; qtot    0.244
         4            o3bf         1   UNL        o3         4    -0.60518       15.9990 ; qtot   -0.361
         5            c4bf         1   UNL        c4         5     0.10478       12.0110 ; qtot   -0.256
         6            c5bf         1   UNL        c5         6    -0.07514       12.0110 ; qtot   -0.331
         7            c6bf         1   UNL        c6         7    -0.13250       12.0110 ; qtot   -0.464
         8            c7bf         1   UNL        c7         8    -0.06578       12.0110 ; qtot   -0.530
         9            c8bf         1   UNL        c8         9    -0.08745       12.0110 ; qtot   -0.617
        10            n9bf         1   UNL        n9        10    -0.55643       14.0070 ; qtot   -1.174
        11           c10bf         1   UNL       c10        11     0.59414       12.0110 ; qtot   -0.580
        12           c11bf         1   UNL       c11        12     0.37509       12.0110 ; qtot   -0.204
        13           o12bf         1   UNL       o12        13    -0.57698       15.9990 ; qtot   -0.781
        14           n13bf         1   UNL       n13        14    -0.60853       14.0070 ; qtot   -1.390
        15           s14bf         1   UNL       s14        15    -0.11954       32.0670 ; qtot   -1.509
        16           h15bf         1   UNL       h15        16     0.32008        1.0080 ; qtot   -1.189
        17           h16bf         1   UNL       h16        17     0.07698        1.0080 ; qtot   -1.112
        18           h17bf         1   UNL       h17        18     0.33735        1.0080 ; qtot   -0.775
        19           c18bf         1   UNL       c18        19     0.34886       12.0110 ; qtot   -0.426
        20           c19bf         1   UNL       c19        20    -0.15290       12.0110 ; qtot   -0.579
        21           c20bf         1   UNL       c20        21     0.24342       12.0110 ; qtot   -0.336
        22           n21bf         1   UNL       n21        22    -0.71265       14.0070 ; qtot   -1.048
        23           c22bf         1   UNL       c22        23     0.15896       12.0110 ; qtot   -0.889
        24           c23bf         1   UNL       c23        24    -0.11292       12.0110 ; qtot   -1.002
        25           c24bf         1   UNL       c24        25     0.14692       12.0110 ; qtot   -0.855
        26           h25bf         1   UNL       h25        26     0.05218        1.0080 ; qtot   -0.803
        27           h26bf         1   UNL       h26        27     0.05218        1.0080 ; qtot   -0.751
        28           h27bf         1   UNL       h27        28     0.04542        1.0080 ; qtot   -0.706
        29           h28bf         1   UNL       h28        29     0.04542        1.0080 ; qtot   -0.660
        30           h29bf         1   UNL       h29        30     0.06419        1.0080 ; qtot   -0.596
        31           h30bf         1   UNL       h30        31     0.06419        1.0080 ; qtot   -0.532
        32           h31bf         1   UNL       h31        32     0.03530        1.0080 ; qtot   -0.496
        33           h32bf         1   UNL       h32        33     0.03530        1.0080 ; qtot   -0.461
        34           h33bf         1   UNL       h33        34     0.03530        1.0080 ; qtot   -0.426
        35           c34bf         1   UNL       c34        35     0.67193       12.0110 ; qtot    0.246
        36           o35bf         1   UNL       o35        36    -0.60797       15.9990 ; qtot   -0.362
        37           n36bf         1   UNL       n36        37    -0.49029       14.0070 ; qtot   -0.852
        38           c37bf         1   UNL       c37        38     0.08466       12.0110 ; qtot   -0.768
        39           c38bf         1   UNL       c38        39     0.08466       12.0110 ; qtot   -0.683
        40           h39bf         1   UNL       h39        40     0.06150        1.0080 ; qtot   -0.621
        41           h40bf         1   UNL       h40        41     0.06150        1.0080 ; qtot   -0.560
        42           h41bf         1   UNL       h41        42     0.06422        1.0080 ; qtot   -0.496
        43           h42bf         1   UNL       h42        43     0.05208        1.0080 ; qtot   -0.444
        44           h43bf         1   UNL       h43        44     0.05208        1.0080 ; qtot   -0.392
        45           h44bf         1   UNL       h44        45     0.05526        1.0080 ; qtot   -0.336
        46           h45bf         1   UNL       h45        46     0.05526        1.0080 ; qtot   -0.281
        47           h46bf         1   UNL       h46        47     0.04383        1.0080 ; qtot   -0.237
        48           h47bf         1   UNL       h47        48     0.04383        1.0080 ; qtot   -0.193
        49           h48bf         1   UNL       h48        49     0.04383        1.0080 ; qtot   -0.149
        50           h49bf         1   UNL       h49        50     0.04383        1.0080 ; qtot   -0.106
        51           h50bf         1   UNL       h50        51     0.04383        1.0080 ; qtot   -0.062
        52           h51bf         1   UNL       h51        52     0.04383        1.0080 ; qtot   -0.018
        53           h52bf         1   UNL       h52        53     0.07881        1.0080 ; qtot    0.061
        54           c53bf         1   UNL       c53        54    -0.08999       12.0110 ; qtot   -0.029
        55           c54bf         1   UNL       c54        55    -0.14709       12.0110 ; qtot   -0.176
        56           n55bf         1   UNL       n55        56    -0.14819       14.0070 ; qtot   -0.324
        57           h56bf         1   UNL       h56        57     0.32772        1.0080 ; qtot    0.003
        58           c57bf         1   UNL       c57        58    -0.08150       12.0110 ; qtot   -0.078
        59           c58bf         1   UNL       c58        59    -0.03172       12.0110 ; qtot   -0.110
        60           c59bf         1   UNL       c59        60    -0.13046       12.0110 ; qtot   -0.240
        61           c60bf         1   UNL       c60        61    -0.10262       12.0110 ; qtot   -0.343
        62           c61bf         1   UNL       c61        62     0.00964       12.0110 ; qtot   -0.333
        63           c62bf         1   UNL       c62        63    -0.05448       12.0110 ; qtot   -0.388
        64           h63bf         1   UNL       h63        64     0.13853        1.0080 ; qtot   -0.249
        65           h64bf         1   UNL       h64        65     0.14814        1.0080 ; qtot   -0.101
        66          cl65bf         1   UNL      cl65        66    -0.12911       35.4530 ; qtot   -0.230
        67           h66bf         1   UNL       h66        67     0.16183        1.0080 ; qtot   -0.068
        68           c67bf         1   UNL       c67        68     0.71321       12.0110 ; qtot    0.645
        69           o68bf         1   UNL       o68        69    -0.60686       15.9990 ; qtot    0.038
        70           n69bf         1   UNL       n69        70    -0.46936       14.0070 ; qtot   -0.432
        71           c70bf         1   UNL       c70        71     0.08482       12.0110 ; qtot   -0.347
        72           c71bf         1   UNL       c71        72     0.08482       12.0110 ; qtot   -0.262
        73           h72bf         1   UNL       h72        73     0.04365        1.0080 ; qtot   -0.218
        74           h73bf         1   UNL       h73        74     0.04365        1.0080 ; qtot   -0.175
        75           h74bf         1   UNL       h74        75     0.04365        1.0080 ; qtot   -0.131
        76           h75bf         1   UNL       h75        76     0.04365        1.0080 ; qtot   -0.087
        77           h76bf         1   UNL       h76        77     0.04365        1.0080 ; qtot   -0.044
        78           h77bf         1   UNL       h77        78     0.04362        1.0080 ; qtot    0.000

[ bonds ]
;       ai        aj funct               r               k
         1         2     1        0.136448   281677.304248    ;  uncertainty r = 0.000234, k = 21.315249
         1         4     1        0.124362   761444.586914    ;  uncertainty r = 0.000144, k = 19.530491
         1        54     1        0.148298   249821.624512    ;  uncertainty r = 0.000204, k = 30.376794
         2         3     1        0.145938   247381.170654    ;  uncertainty r = 0.000080, k = 10.574070
         2        16     1        0.101465   411475.970313    ;  uncertainty r = 0.000088, k = 3.934817
         3         5     1        0.154139   193161.035400    ;  uncertainty r = 0.000236, k = 7.190291
         3         9     1        0.153518   200048.036279    ;  uncertainty r = 0.000083, k = 7.067665
         3        17     1        0.109367   306086.516113    ;  uncertainty r = 0.000048, k = 3.200896
         5         6     1        0.153459   198491.779297    ;  uncertainty r = 0.000127, k = 5.264538
         5        10     1        0.145729   238727.461475    ;  uncertainty r = 0.000067, k = 15.790014
         5        53     1        0.109360   306487.525342    ;  uncertainty r = 0.000054, k = 3.376958
         6         7     1        0.153721   199006.850024    ;  uncertainty r = 0.000168, k = 6.848027
         6        40     1        0.109526   310433.851465    ;  uncertainty r = 0.000043, k = 0.875064
         6        41     1        0.109526   310433.851465    ;  uncertainty r = 0.000043, k = 0.875064
         7         8     1        0.153975   202217.337109    ;  uncertainty r = 0.000087, k = 2.573046
         7        35     1        0.153156   206143.680444    ;  uncertainty r = 0.000070, k = 12.443492
         7        42     1        0.109633   309151.735352    ;  uncertainty r = 0.000051, k = 6.503762
         8         9     1        0.153315   207912.240186    ;  uncertainty r = 0.000063, k = 5.403351
         8        43     1        0.109602   308125.501074    ;  uncertainty r = 0.000021, k = 1.819146
         8        44     1        0.109602   308125.501074    ;  uncertainty r = 0.000021, k = 1.819146
         9        45     1        0.109620   309910.953613    ;  uncertainty r = 0.000024, k = 1.009960
         9        46     1        0.109620   309910.953613    ;  uncertainty r = 0.000024, k = 1.009960
        10        11     1        0.136254   291452.475586    ;  uncertainty r = 0.000129, k = 17.867731
        10        18     1        0.101616   410581.507520    ;  uncertainty r = 0.000093, k = 3.750123
        11        12     1        0.147883   259563.418848    ;  uncertainty r = 0.000125, k = 27.680344
        11        13     1        0.123538   703630.001367    ;  uncertainty r = 0.000115, k = 12.098945
        12        14     1        0.130310   434161.095312    ;  uncertainty r = 0.000085, k = 15.053236
        12        15     1        0.175563   155788.944214    ;  uncertainty r = 0.000188, k = 10.470577
        14        19     1        0.137602   299978.345996    ;  uncertainty r = 0.000211, k = 8.739575
        15        20     1        0.173396   184345.625244    ;  uncertainty r = 0.000110, k = 8.530767
        19        20     1        0.137286   397473.794482    ;  uncertainty r = 0.000034, k = 9.608965
        19        24     1        0.149948   244144.622949    ;  uncertainty r = 0.000108, k = 7.193396
        20        21     1        0.150719   237383.826465    ;  uncertainty r = 0.000089, k = 11.691948
        21        22     1        0.146397   258698.068359    ;  uncertainty r = 0.000045, k = 12.802743
        21        26     1        0.110180   303656.992139    ;  uncertainty r = 0.000048, k = 3.959665
        21        27     1        0.110180   303656.992139    ;  uncertainty r = 0.000048, k = 3.959665
        22        23     1        0.146774   246527.975830    ;  uncertainty r = 0.000088, k = 8.191406
        22        25     1        0.145874   240551.449512    ;  uncertainty r = 0.000055, k = 4.989744
        23        24     1        0.153862   211171.503149    ;  uncertainty r = 0.000061, k = 10.297044
        23        28     1        0.109933   305388.127246    ;  uncertainty r = 0.000023, k = 3.768152
        23        29     1        0.109933   305388.127246    ;  uncertainty r = 0.000023, k = 3.768152
        24        30     1        0.109729   310887.467139    ;  uncertainty r = 0.000009, k = 2.383701
        24        31     1        0.109729   310887.467139    ;  uncertainty r = 0.000009, k = 2.383701
        25        32     1        0.109858   306972.960254    ;  uncertainty r = 0.000009, k = 1.032628
        25        33     1        0.109858   306972.960254    ;  uncertainty r = 0.000009, k = 1.032628
        25        34     1        0.109858   306972.960254    ;  uncertainty r = 0.000009, k = 1.032628
        35        36     1        0.123614   736987.492969    ;  uncertainty r = 0.000035, k = 11.451192
        35        37     1        0.137582   365085.461719    ;  uncertainty r = 0.000056, k = 20.353979
        37        38     1        0.145904   250764.556738    ;  uncertainty r = 0.000013, k = 6.211512
        37        39     1        0.145904   250764.556738    ;  uncertainty r = 0.000013, k = 6.211512
        38        47     1        0.109437   311080.731982    ;  uncertainty r = 0.000014, k = 1.257584
        38        48     1        0.109437   311080.731982    ;  uncertainty r = 0.000014, k = 1.257584
        38        49     1        0.109437   311080.731982    ;  uncertainty r = 0.000014, k = 1.257584
        39        50     1        0.109437   311080.731982    ;  uncertainty r = 0.000014, k = 1.257584
        39        51     1        0.109437   311080.731982    ;  uncertainty r = 0.000014, k = 1.257584
        39        52     1        0.109437   311080.731982    ;  uncertainty r = 0.000014, k = 1.257584
        54        55     1        0.139049   371849.782324    ;  uncertainty r = 0.000166, k = 22.557309
        54        56     1        0.138102   303084.577832    ;  uncertainty r = 0.000099, k = 8.371791
        55        58     1        0.144254   238341.314844    ;  uncertainty r = 0.000086, k = 22.028899
        55        68     1        0.149177   284474.460449    ;  uncertainty r = 0.000256, k = 12.285671
        56        57     1        0.101297   412480.625732    ;  uncertainty r = 0.000062, k = 4.273028
        56        59     1        0.138093   318663.976611    ;  uncertainty r = 0.000121, k = 8.667301
        58        59     1        0.142274   370241.991455    ;  uncertainty r = 0.000075, k = 6.325173
        58        63     1        0.140298   355882.219482    ;  uncertainty r = 0.000053, k = 5.299004
        59        60     1        0.139734   366424.959717    ;  uncertainty r = 0.000044, k = 4.161048
        60        61     1        0.139056   378055.606348    ;  uncertainty r = 0.000030, k = 2.759296
        60        64     1        0.108852   337203.279590    ;  uncertainty r = 0.000011, k = 0.908571
        61        62     1        0.141014   341391.697510    ;  uncertainty r = 0.000032, k = 1.202226
        61        65     1        0.108663   336178.117871    ;  uncertainty r = 0.000012, k = 1.606467
        62        63     1        0.138864   355965.112939    ;  uncertainty r = 0.000051, k = 5.488614
        62        66     1        0.176297   194233.785522    ;  uncertainty r = 0.000020, k = 4.712928
        63        67     1        0.108633   335387.974170    ;  uncertainty r = 0.000024, k = 0.622882
        68        69     1        0.123984   787549.999121    ;  uncertainty r = 0.000132, k = 17.190236
        68        70     1        0.136661   377014.969141    ;  uncertainty r = 0.000180, k = 22.639857
        70        71     1        0.145833   249732.500000    ;  uncertainty r = 0.000038, k = 3.810352
        70        72     1        0.145833   249732.500000    ;  uncertainty r = 0.000038, k = 3.810352
        71        76     1        0.109458   311080.680908    ;  uncertainty r = 0.000008, k = 1.935573
        71        77     1        0.109458   311080.680908    ;  uncertainty r = 0.000008, k = 1.935573
        71        78     1        0.109458   311080.680908    ;  uncertainty r = 0.000008, k = 1.935573
        72        73     1        0.109458   311080.680908    ;  uncertainty r = 0.000008, k = 1.935573
        72        74     1        0.109458   311080.680908    ;  uncertainty r = 0.000008, k = 1.935582
        72        75     1        0.109458   311080.680908    ;  uncertainty r = 0.000008, k = 1.935582

[ angles ]
;       ai        aj        ak funct           theta             cth
         1         2         3     1      116.034866      451.178412    ;  uncertainty theta = 0.004851, k = 0.081965
         1         2        16     1      115.597641      345.919204    ;  uncertainty theta = 0.003918, k = 0.240180
         1        54        55     1      130.803253      276.175762    ;  uncertainty theta = 0.008212, k = 0.353013
         1        54        56     1      118.052467      365.647546    ;  uncertainty theta = 0.008468, k = 0.433370
         2         1         4     1      124.945412      833.945845    ;  uncertainty theta = 0.001959, k = 0.080081
         2         1        54     1      114.823196      433.410138    ;  uncertainty theta = 0.004638, k = 0.209599
         2         3         5     1      109.309471      580.995350    ;  uncertainty theta = 0.003536, k = 0.178882
         2         3         9     1      110.994591      635.727249    ;  uncertainty theta = 0.001931, k = 0.052468
         2         3        17     1      105.351700      443.179998    ;  uncertainty theta = 0.003453, k = 0.190538
         3         2        16     1      112.716141      329.226329    ;  uncertainty theta = 0.002381, k = 0.187770
         3         5         6     1      109.667007      544.088545    ;  uncertainty theta = 0.003126, k = 0.180277
         3         5        10     1      109.139542      584.355842    ;  uncertainty theta = 0.004639, k = 0.176239
         3         5        53     1      107.723289      384.022454    ;  uncertainty theta = 0.001789, k = 0.083418
         3         9         8     1      109.781250      550.882246    ;  uncertainty theta = 0.003398, k = 0.118498
         3         9        45     1      107.485580      382.775669    ;  uncertainty theta = 0.000849, k = 0.034559
         3         9        46     1      107.485580      382.775669    ;  uncertainty theta = 0.000849, k = 0.034559
         4         1        54     1      123.465576      480.751215    ;  uncertainty theta = 0.003461, k = 0.095712
         5         3         9     1      109.366600      551.752806    ;  uncertainty theta = 0.001151, k = 0.237879
         5         3        17     1      107.452553      381.847714    ;  uncertainty theta = 0.002532, k = 0.087792
         5         6         7     1      110.155777      537.181906    ;  uncertainty theta = 0.003354, k = 0.119115
         5         6        40     1      107.460854      385.063155    ;  uncertainty theta = 0.000653, k = 0.058631
         5         6        41     1      107.460854      385.063155    ;  uncertainty theta = 0.000653, k = 0.058631
         5        10        11     1      116.256470      438.591490    ;  uncertainty theta = 0.006636, k = 0.182671
         5        10        18     1      112.697777      315.756941    ;  uncertainty theta = 0.001526, k = 0.296885
         6         5        10     1      110.224083      630.160670    ;  uncertainty theta = 0.002121, k = 0.087819
         6         5        53     1      108.606544      408.575938    ;  uncertainty theta = 0.001745, k = 0.034990
         6         7         8     1      109.900391      583.567575    ;  uncertainty theta = 0.002330, k = 0.083135
         6         7        35     1      108.569168      489.144113    ;  uncertainty theta = 0.003757, k = 0.073146
         6         7        42     1      107.332260      401.082169    ;  uncertainty theta = 0.002516, k = 0.077903
         7         6        40     1      108.676857      396.198101    ;  uncertainty theta = 0.000795, k = 0.026396
         7         6        41     1      108.676857      396.198101    ;  uncertainty theta = 0.000795, k = 0.026396
         7         8         9     1      109.786987      580.835360    ;  uncertainty theta = 0.001913, k = 0.141340
         7         8        43     1      108.292625      386.614311    ;  uncertainty theta = 0.000735, k = 0.019139
         7         8        44     1      108.292625      386.614311    ;  uncertainty theta = 0.000735, k = 0.019139
         7        35        36     1      123.648819      547.647652    ;  uncertainty theta = 0.003749, k = 0.250532
         7        35        37     1      114.135170      399.306701    ;  uncertainty theta = 0.002339, k = 0.216014
         8         7        35     1      108.943726      496.415422    ;  uncertainty theta = 0.001979, k = 0.055108
         8         7        42     1      107.694107      403.879791    ;  uncertainty theta = 0.001685, k = 0.082263
         8         9        45     1      108.763489      400.577939    ;  uncertainty theta = 0.001541, k = 0.036918
         8         9        46     1      108.763489      400.577939    ;  uncertainty theta = 0.001541, k = 0.036918
         9         3        17     1      108.899765      410.826108    ;  uncertainty theta = 0.001556, k = 0.072627
         9         8        43     1      108.482079      402.739687    ;  uncertainty theta = 0.000859, k = 0.036544
         9         8        44     1      108.482079      402.739687    ;  uncertainty theta = 0.000859, k = 0.036544
        10         5        53     1      105.246643      446.517028    ;  uncertainty theta = 0.004204, k = 0.177955
        10        11        12     1      113.070839      435.784547    ;  uncertainty theta = 0.006920, k = 0.140238
        10        11        13     1      124.950012      804.911939    ;  uncertainty theta = 0.003994, k = 0.055585
        11        10        18     1      116.250000      347.593576    ;  uncertainty theta = 0.004441, k = 0.081627
        11        12        14     1      122.197128      370.860213    ;  uncertainty theta = 0.005964, k = 0.255742
        11        12        15     1      118.123451      287.405674    ;  uncertainty theta = 0.005808, k = 0.204925
        12        11        13     1      120.002197      453.227350    ;  uncertainty theta = 0.007890, k = 0.121396
        12        14        19     1      111.845421      637.059456    ;  uncertainty theta = 0.004719, k = 0.108197
        12        15        20     1       89.170425     1132.634133    ;  uncertainty theta = 0.004755, k = 0.314956
        14        12        15     1      116.136452      646.965173    ;  uncertainty theta = 0.002239, k = 0.246117
        14        19        20     1      115.716957      690.992937    ;  uncertainty theta = 0.003156, k = 0.158093
        14        19        24     1      124.040390      433.932787    ;  uncertainty theta = 0.004363, k = 0.201750
        15        20        19     1      109.672325      507.238336    ;  uncertainty theta = 0.002750, k = 0.124654
        15        20        21     1      124.458923      318.004972    ;  uncertainty theta = 0.003631, k = 0.249957
        19        20        21     1      122.449425      322.713122    ;  uncertainty theta = 0.004108, k = 0.373686
        19        24        23     1      106.939438      596.797522    ;  uncertainty theta = 0.003584, k = 0.044131
        19        24        30     1      108.548073      392.911220    ;  uncertainty theta = 0.001454, k = 0.086868
        19        24        31     1      108.548073      392.911220    ;  uncertainty theta = 0.001454, k = 0.086868
        20        19        24     1      120.498146      325.489963    ;  uncertainty theta = 0.004995, k = 0.174544
        20        21        22     1      109.701111      686.046080    ;  uncertainty theta = 0.001850, k = 0.201796
        20        21        26     1      108.925659      409.463193    ;  uncertainty theta = 0.001395, k = 0.154098
        20        21        27     1      108.925659      409.463193    ;  uncertainty theta = 0.001395, k = 0.154098
        21        22        23     1      108.084244      491.834927    ;  uncertainty theta = 0.003315, k = 0.091086
        21        22        25     1      107.580322      510.743273    ;  uncertainty theta = 0.002764, k = 0.057722
        22        21        26     1      109.358154      448.409487    ;  uncertainty theta = 0.001850, k = 0.074310
        22        21        27     1      109.358154      448.409487    ;  uncertainty theta = 0.001850, k = 0.074310
        22        23        24     1      112.487526      700.788206    ;  uncertainty theta = 0.002677, k = 0.118016
        22        23        28     1      108.920166      453.721493    ;  uncertainty theta = 0.001526, k = 0.064884
        22        23        29     1      108.920166      453.721493    ;  uncertainty theta = 0.001526, k = 0.064884
        22        25        32     1      110.438461      450.024231    ;  uncertainty theta = 0.001821, k = 0.029766
        22        25        33     1      110.438461      450.024231    ;  uncertainty theta = 0.001821, k = 0.029766
        22        25        34     1      110.438461      450.024231    ;  uncertainty theta = 0.001821, k = 0.029766
        23        22        25     1      108.245483      523.945384    ;  uncertainty theta = 0.002945, k = 0.105030
        23        24        30     1      108.704140      394.566535    ;  uncertainty theta = 0.001154, k = 0.056791
        23        24        31     1      108.704140      394.566535    ;  uncertainty theta = 0.001154, k = 0.056791
        24        23        28     1      108.660522      413.983038    ;  uncertainty theta = 0.001451, k = 0.079858
        24        23        29     1      108.660522      413.983038    ;  uncertainty theta = 0.001451, k = 0.079858
        26        21        27     1      104.710770      316.430897    ;  uncertainty theta = 0.002647, k = 0.058044
        28        23        29     1      105.686386      320.062785    ;  uncertainty theta = 0.001993, k = 0.069558
        30        24        31     1      105.018166      307.701164    ;  uncertainty theta = 0.001306, k = 0.028790
        32        25        33     1      106.707680      321.292396    ;  uncertainty theta = 0.002211, k = 0.028957
        32        25        34     1      106.707680      321.292396    ;  uncertainty theta = 0.002211, k = 0.028957
        33        25        34     1      106.707680      321.292396    ;  uncertainty theta = 0.002211, k = 0.028957
        35         7        42     1      106.313622      362.200292    ;  uncertainty theta = 0.002423, k = 0.146630
        35        37        38     1      116.622971      385.561065    ;  uncertainty theta = 0.001770, k = 0.124804
        35        37        39     1      116.622971      385.561065    ;  uncertainty theta = 0.001770, k = 0.124804
        36        35        37     1      123.396584      724.695474    ;  uncertainty theta = 0.001503, k = 0.174408
        37        38        47     1      109.352982      479.364486    ;  uncertainty theta = 0.001224, k = 0.042687
        37        38        48     1      109.352982      479.364486    ;  uncertainty theta = 0.001224, k = 0.042687
        37        38        49     1      109.352982      479.364486    ;  uncertainty theta = 0.001224, k = 0.042687
        37        39        50     1      109.352982      479.364486    ;  uncertainty theta = 0.001224, k = 0.042687
        37        39        51     1      109.352982      479.364486    ;  uncertainty theta = 0.001224, k = 0.042687
        37        39        52     1      109.352982      479.364486    ;  uncertainty theta = 0.001224, k = 0.042687
        38        37        39     1      118.428368      428.731644    ;  uncertainty theta = 0.003391, k = 0.223109
        40         6        41     1      105.326035      326.596294    ;  uncertainty theta = 0.002223, k = 0.051835
        43         8        44     1      104.655197      318.642921    ;  uncertainty theta = 0.002537, k = 0.034949
        45         9        46     1      105.089188      316.666285    ;  uncertainty theta = 0.002339, k = 0.045277
        47        38        48     1      106.824196      329.099123    ;  uncertainty theta = 0.001131, k = 0.027019
        47        38        49     1      106.824196      329.099123    ;  uncertainty theta = 0.001131, k = 0.027019
        48        38        49     1      106.824196      329.099123    ;  uncertainty theta = 0.001131, k = 0.027019
        50        39        51     1      106.824196      329.099123    ;  uncertainty theta = 0.001131, k = 0.027019
        50        39        52     1      106.824196      329.099123    ;  uncertainty theta = 0.001131, k = 0.027019
        51        39        52     1      106.824196      329.099123    ;  uncertainty theta = 0.001131, k = 0.027019
        54        55        58     1      108.189552      716.688632    ;  uncertainty theta = 0.002711, k = 0.329182
        54        55        68     1      125.403831      303.863958    ;  uncertainty theta = 0.004130, k = 0.423086
        54        56        57     1      115.548233      291.955046    ;  uncertainty theta = 0.004637, k = 0.199000
        54        56        59     1      106.395142      877.003965    ;  uncertainty theta = 0.004124, k = 0.185656
        55        54        56     1      112.411476      666.922679    ;  uncertainty theta = 0.002400, k = 0.242125
        55        58        59     1      107.275795      710.696541    ;  uncertainty theta = 0.005408, k = 0.129820
        55        58        63     1      131.229858      376.950718    ;  uncertainty theta = 0.003487, k = 0.137835
        55        68        69     1      125.117294      489.101339    ;  uncertainty theta = 0.005341, k = 0.074819
        55        68        70     1      114.655838      384.091979    ;  uncertainty theta = 0.004638, k = 0.289903
        56        59        58     1      108.141579      699.908644    ;  uncertainty theta = 0.003230, k = 0.203050
        56        59        60     1      129.664566      392.599763    ;  uncertainty theta = 0.002351, k = 0.077591
        57        56        59     1      117.120010      285.750997    ;  uncertainty theta = 0.004471, k = 0.225480
        58        55        68     1      124.841995      313.964523    ;  uncertainty theta = 0.005044, k = 0.271991
        58        59        60     1      120.632912      371.820153    ;  uncertainty theta = 0.003616, k = 0.080981
        58        63        62     1      116.991699      510.209739    ;  uncertainty theta = 0.001286, k = 0.113683
        58        63        67     1      120.944519      277.829800    ;  uncertainty theta = 0.003114, k = 0.093719
        59        58        63     1      117.911255      403.520452    ;  uncertainty theta = 0.002097, k = 0.074725
        59        60        61     1      117.357849      522.819963    ;  uncertainty theta = 0.002923, k = 0.095277
        59        60        64     1      122.159645      289.455921    ;  uncertainty theta = 0.001300, k = 0.036117
        60        61        62     1      121.020432      501.756445    ;  uncertainty theta = 0.001398, k = 0.063447
        60        61        65     1      120.146629      279.733049    ;  uncertainty theta = 0.001978, k = 0.035795
        61        60        64     1      120.762413      280.893583    ;  uncertainty theta = 0.001724, k = 0.042945
        61        62        63     1      123.912918      384.805518    ;  uncertainty theta = 0.002082, k = 0.115500
        61        62        66     1      119.315506      454.381596    ;  uncertainty theta = 0.001452, k = 0.107904
        62        61        65     1      120.094994      285.331550    ;  uncertainty theta = 0.001979, k = 0.036356
        62        63        67     1      121.202652      290.602154    ;  uncertainty theta = 0.002359, k = 0.050964
        63        62        66     1      120.193459      440.930530    ;  uncertainty theta = 0.001546, k = 0.037667
        68        70        71     1      116.035362      375.499635    ;  uncertainty theta = 0.004272, k = 0.066525
        68        70        72     1      116.035362      375.499635    ;  uncertainty theta = 0.004272, k = 0.066525
        69        68        70     1      124.133141      712.101656    ;  uncertainty theta = 0.002285, k = 0.132239
        70        71        76     1      109.320251      483.200096    ;  uncertainty theta = 0.001011, k = 0.039558
        70        71        77     1      109.320251      483.200096    ;  uncertainty theta = 0.001011, k = 0.039558
        70        71        78     1      109.320251      483.200096    ;  uncertainty theta = 0.001011, k = 0.039558
        70        72        73     1      109.320251      483.200096    ;  uncertainty theta = 0.001011, k = 0.039558
        70        72        74     1      109.320251      483.200096    ;  uncertainty theta = 0.001011, k = 0.039558
        70        72        75     1      109.320251      483.200096    ;  uncertainty theta = 0.001011, k = 0.039558
        71        70        72     1      118.293251      432.996086    ;  uncertainty theta = 0.003503, k = 0.196234
        73        72        74     1      106.855103      327.404799    ;  uncertainty theta = 0.000966, k = 0.029792
        73        72        75     1      106.855103      327.404799    ;  uncertainty theta = 0.000966, k = 0.029792
        74        72        75     1      106.855103      327.404799    ;  uncertainty theta = 0.000966, k = 0.029792
        76        71        77     1      106.855103      327.404799    ;  uncertainty theta = 0.000966, k = 0.029792
        76        71        78     1      106.855103      327.404799    ;  uncertainty theta = 0.000966, k = 0.029792
        77        71        78     1      106.855103      327.404799    ;  uncertainty theta = 0.000966, k = 0.029792

[ dihedrals ] ; propers for gromacs 4.5 or higher, use funct 9
;       ai        aj        ak        al funct           phase               k        pn
         1         2         3         5     9        0.000000        0.582043         1    ;  uncertainty k = 0.415684
         1         2         3         5     9      180.000000        0.142102         2    ;  uncertainty k = 0.320221
         1         2         3         5     9        0.000000       -0.063422         3    ;  uncertainty k = 0.083544
         1         2         3         5     9      180.000000        0.423253         4    ;  uncertainty k = 0.225690
         1         2         3         9     9        0.000000        0.355251         1    ;  uncertainty k = 0.472460
         1         2         3         9     9      180.000000        0.017122         2    ;  uncertainty k = 0.364187
         1         2         3         9     9        0.000000        0.204040         3    ;  uncertainty k = 0.112197
         1         2         3         9     9      180.000000        0.361151         4    ;  uncertainty k = 0.197245
         1         2         3        17     9        0.000000        1.114116         1    ;  uncertainty k = 0.265455
         1         2         3        17     9      180.000000       -0.461056         2    ;  uncertainty k = 0.269432
         1         2         3        17     9        0.000000        0.051111         3    ;  uncertainty k = 0.135890
         1         2         3        17     9      180.000000        0.212013         4    ;  uncertainty k = 0.102366
         1        54        55        58     9        0.000000        1.129540         1    ;  uncertainty k = 1.076181
         1        54        55        58     9      180.000000       11.724396         2    ;  uncertainty k = 0.440930
         1        54        55        58     9        0.000000        2.020167         3    ;  uncertainty k = 0.300247
         1        54        55        58     9      180.000000        0.840422         4    ;  uncertainty k = 0.275779
         1        54        55        68     9        0.000000        0.371395         1    ;  uncertainty k = 1.639435
         1        54        55        68     9      180.000000        9.203252         2    ;  uncertainty k = 1.019864
         1        54        55        68     9        0.000000        2.241710         3    ;  uncertainty k = 0.480093
         1        54        55        68     9      180.000000        0.436522         4    ;  uncertainty k = 0.376618
         1        54        56        57     9        0.000000        2.094647         1    ;  uncertainty k = 1.488678
         1        54        56        57     9      180.000000        2.346723         2    ;  uncertainty k = 0.890415
         1        54        56        57     9        0.000000        0.987243         3    ;  uncertainty k = 0.770373
         1        54        56        57     9      180.000000        0.070642         4    ;  uncertainty k = 0.250608
         1        54        56        59     9        0.000000        1.605181         1    ;  uncertainty k = 2.392252
         1        54        56        59     9      180.000000        7.715723         2    ;  uncertainty k = 0.456438
         1        54        56        59     9        0.000000        1.736746         3    ;  uncertainty k = 0.494655
         1        54        56        59     9      180.000000        0.107017         4    ;  uncertainty k = 0.384750
         2         1        54        55     9        0.000000        3.228473         1    ;  uncertainty k = 1.821365
         2         1        54        55     9      180.000000        2.668415         2    ;  uncertainty k = 0.371619
         2         1        54        55     9        0.000000        0.968462         3    ;  uncertainty k = 0.281639
         2         1        54        55     9      180.000000       -0.185655         4    ;  uncertainty k = 0.192126
         2         1        54        56     9        0.000000        2.283128         1    ;  uncertainty k = 1.608074
         2         1        54        56     9      180.000000        5.145848         2    ;  uncertainty k = 0.330747
         2         1        54        56     9        0.000000        0.351586         3    ;  uncertainty k = 0.444636
         2         1        54        56     9      180.000000       -0.296831         4    ;  uncertainty k = 0.193650
         2         3         5         6     9        0.000000       -2.510198         1    ;  uncertainty k = 0.417545
         2         3         5         6     9      180.000000       -0.285312         2    ;  uncertainty k = 0.401410
         2         3         5         6     9        0.000000        0.534360         3    ;  uncertainty k = 0.230266
         2         3         5         6     9      180.000000       -0.090155         4    ;  uncertainty k = 0.125501
         2         3         5        10     9        0.000000        0.301806         1    ;  uncertainty k = 0.925954
         2         3         5        10     9      180.000000       -1.120231         2    ;  uncertainty k = 0.781501
         2         3         5        10     9        0.000000        0.363479         3    ;  uncertainty k = 0.405830
         2         3         5        10     9      180.000000       -0.029428         4    ;  uncertainty k = 0.370584
         2         3         5        53     9        0.000000       -0.015906         1    ;  uncertainty k = 0.958458
         2         3         5        53     9      180.000000       -1.386466         2    ;  uncertainty k = 0.500108
         2         3         5        53     9        0.000000        0.486184         3    ;  uncertainty k = 0.252487
         2         3         5        53     9      180.000000       -0.280566         4    ;  uncertainty k = 0.124395
         2         3         9         8     9        0.000000       -4.155182         1    ;  uncertainty k = 0.781013
         2         3         9         8     9      180.000000        0.196929         2    ;  uncertainty k = 0.179098
         2         3         9         8     9        0.000000        0.864698         3    ;  uncertainty k = 0.073218
         2         3         9         8     9      180.000000       -0.162268         4    ;  uncertainty k = 0.135108
         2         3         9        45     9        0.000000       -0.396386         1    ;  uncertainty k = 0.513354
         2         3         9        45     9      180.000000       -1.368249         2    ;  uncertainty k = 0.467090
         2         3         9        45     9        0.000000        0.895758         3    ;  uncertainty k = 0.111035
         2         3         9        45     9      180.000000       -0.293689         4    ;  uncertainty k = 0.074429
         2         3         9        46     9        0.000000       -0.396386         1    ;  uncertainty k = 0.513354
         2         3         9        46     9      180.000000       -1.368249         2    ;  uncertainty k = 0.467090
         2         3         9        46     9        0.000000        0.895758         3    ;  uncertainty k = 0.111035
         2         3         9        46     9      180.000000       -0.293689         4    ;  uncertainty k = 0.074429
         3         2         1         4     9        0.000000        3.401201         1    ;  uncertainty k = 0.970713
         3         2         1         4     9      180.000000       11.702722         2    ;  uncertainty k = 0.217894
         3         2         1         4     9        0.000000        0.361514         3    ;  uncertainty k = 0.115167
         3         2         1         4     9      180.000000        0.018165         4    ;  uncertainty k = 0.292022
         3         2         1        54     9        0.000000        5.275591         1    ;  uncertainty k = 1.538162
         3         2         1        54     9      180.000000       13.286777         2    ;  uncertainty k = 0.064938
         3         2         1        54     9        0.000000        1.705487         3    ;  uncertainty k = 0.282492
         3         2         1        54     9      180.000000       -1.526776         4    ;  uncertainty k = 0.553299
         3         5         6         7     9        0.000000       -1.441231         1    ;  uncertainty k = 2.707287
         3         5         6         7     9      180.000000       -1.360690         2    ;  uncertainty k = 1.252264
         3         5         6         7     9        0.000000        0.525245         3    ;  uncertainty k = 0.493098
         3         5         6         7     9      180.000000       -1.218764         4    ;  uncertainty k = 0.207221
         3         5         6        40     9        0.000000       -0.886560         1    ;  uncertainty k = 0.513191
         3         5         6        40     9      180.000000       -0.614553         2    ;  uncertainty k = 0.170864
         3         5         6        40     9        0.000000        0.125433         3    ;  uncertainty k = 0.062892
         3         5         6        40     9      180.000000       -0.135794         4    ;  uncertainty k = 0.112685
         3         5         6        41     9        0.000000       -0.886560         1    ;  uncertainty k = 0.513191
         3         5         6        41     9      180.000000       -0.614553         2    ;  uncertainty k = 0.170864
         3         5         6        41     9        0.000000        0.125433         3    ;  uncertainty k = 0.062892
         3         5         6        41     9      180.000000       -0.135794         4    ;  uncertainty k = 0.112685
         3         5        10        11     9        0.000000        0.799709         1    ;  uncertainty k = 0.606926
         3         5        10        11     9      180.000000        0.226262         2    ;  uncertainty k = 0.176703
         3         5        10        11     9        0.000000       -0.089394         3    ;  uncertainty k = 0.112175
         3         5        10        11     9      180.000000        0.456472         4    ;  uncertainty k = 0.211379
         3         5        10        18     9        0.000000        2.700207         1    ;  uncertainty k = 0.607690
         3         5        10        18     9      180.000000       -1.551771         2    ;  uncertainty k = 0.405633
         3         5        10        18     9        0.000000        0.520296         3    ;  uncertainty k = 0.249721
         3         5        10        18     9      180.000000        0.165312         4    ;  uncertainty k = 0.147787
         3         9         8         7     9        0.000000       -5.572604         1    ;  uncertainty k = 0.740864
         3         9         8         7     9      180.000000       -1.073247         2    ;  uncertainty k = 0.648539
         3         9         8         7     9        0.000000        1.432368         3    ;  uncertainty k = 0.144857
         3         9         8         7     9      180.000000       -1.200677         4    ;  uncertainty k = 0.214908
         3         9         8        43     9        0.000000       -1.162658         1    ;  uncertainty k = 0.422204
         3         9         8        43     9      180.000000       -0.677947         2    ;  uncertainty k = 0.276277
         3         9         8        43     9        0.000000        0.405251         3    ;  uncertainty k = 0.184713
         3         9         8        43     9      180.000000       -0.085340         4    ;  uncertainty k = 0.032159
         3         9         8        44     9        0.000000       -1.162658         1    ;  uncertainty k = 0.422204
         3         9         8        44     9      180.000000       -0.677947         2    ;  uncertainty k = 0.276277
         3         9         8        44     9        0.000000        0.405251         3    ;  uncertainty k = 0.184713
         3         9         8        44     9      180.000000       -0.085340         4    ;  uncertainty k = 0.032159
         4         1         2        16     9        0.000000        2.138406         1    ;  uncertainty k = 1.159312
         4         1         2        16     9      180.000000       13.853605         2    ;  uncertainty k = 0.224154
         4         1         2        16     9        0.000000        1.704796         3    ;  uncertainty k = 0.225325
         4         1         2        16     9      180.000000       -0.261051         4    ;  uncertainty k = 0.380940
         4         1        54        55     9        0.000000       -3.335783         1    ;  uncertainty k = 1.554935
         4         1        54        55     9      180.000000        2.814538         2    ;  uncertainty k = 0.515883
         4         1        54        55     9        0.000000        0.794110         3    ;  uncertainty k = 0.248157
         4         1        54        55     9      180.000000        0.280859         4    ;  uncertainty k = 0.189417
         4         1        54        56     9        0.000000        0.744478         1    ;  uncertainty k = 1.120271
         4         1        54        56     9      180.000000        5.903869         2    ;  uncertainty k = 0.463083
         4         1        54        56     9        0.000000        1.008751         3    ;  uncertainty k = 0.077028
         4         1        54        56     9      180.000000        0.198863         4    ;  uncertainty k = 0.110261
         5         3         2        16     9        0.000000        2.323564         1    ;  uncertainty k = 0.687038
         5         3         2        16     9      180.000000       -1.752614         2    ;  uncertainty k = 0.637974
         5         3         2        16     9        0.000000        0.544709         3    ;  uncertainty k = 0.263575
         5         3         2        16     9      180.000000        0.152860         4    ;  uncertainty k = 0.132562
         5         3         9         8     9        0.000000       -4.804025         1    ;  uncertainty k = 1.427188
         5         3         9         8     9      180.000000        0.196824         2    ;  uncertainty k = 0.731818
         5         3         9         8     9        0.000000        0.932207         3    ;  uncertainty k = 0.332731
         5         3         9         8     9      180.000000       -1.204285         4    ;  uncertainty k = 0.156444
         5         3         9        45     9        0.000000       -0.737758         1    ;  uncertainty k = 0.625634
         5         3         9        45     9      180.000000       -0.674183         2    ;  uncertainty k = 0.266265
         5         3         9        45     9        0.000000        0.105382         3    ;  uncertainty k = 0.044569
         5         3         9        45     9      180.000000       -0.123167         4    ;  uncertainty k = 0.092394
         5         3         9        46     9        0.000000       -0.737758         1    ;  uncertainty k = 0.625634
         5         3         9        46     9      180.000000       -0.674183         2    ;  uncertainty k = 0.266265
         5         3         9        46     9        0.000000        0.105382         3    ;  uncertainty k = 0.044569
         5         3         9        46     9      180.000000       -0.123167         4    ;  uncertainty k = 0.092394
         5         6         7         8     9        0.000000       -3.685858         1    ;  uncertainty k = 1.543474
         5         6         7         8     9      180.000000       -0.285065         2    ;  uncertainty k = 0.572018
         5         6         7         8     9        0.000000        0.981156         3    ;  uncertainty k = 0.134158
         5         6         7         8     9      180.000000       -1.148830         4    ;  uncertainty k = 0.219793
         5         6         7        35     9        0.000000       -1.988880         1    ;  uncertainty k = 0.819118
         5         6         7        35     9      180.000000       -0.959087         2    ;  uncertainty k = 0.272882
         5         6         7        35     9        0.000000        0.443360         3    ;  uncertainty k = 0.318150
         5         6         7        35     9      180.000000        0.183680         4    ;  uncertainty k = 0.094585
         5         6         7        42     9        0.000000       -1.930129         1    ;  uncertainty k = 0.461178
         5         6         7        42     9      180.000000       -0.446539         2    ;  uncertainty k = 0.219585
         5         6         7        42     9        0.000000        0.087588         3    ;  uncertainty k = 0.087001
         5         6         7        42     9      180.000000       -0.164536         4    ;  uncertainty k = 0.141862
         5        10        11        12     9        0.000000        3.955843         1    ;  uncertainty k = 1.375018
         5        10        11        12     9      180.000000       12.511310         2    ;  uncertainty k = 0.157161
         5        10        11        12     9        0.000000        1.265290         3    ;  uncertainty k = 0.258416
         5        10        11        12     9      180.000000       -1.434391         4    ;  uncertainty k = 0.492912
         5        10        11        13     9        0.000000        4.208886         1    ;  uncertainty k = 1.051963
         5        10        11        13     9      180.000000       13.258813         2    ;  uncertainty k = 0.102362
         5        10        11        13     9        0.000000        0.423146         3    ;  uncertainty k = 0.283109
         5        10        11        13     9      180.000000       -0.345444         4    ;  uncertainty k = 0.133898
         6         5         3         9     9        0.000000       -1.518587         1    ;  uncertainty k = 2.482398
         6         5         3         9     9      180.000000        0.526138         2    ;  uncertainty k = 0.958977
         6         5         3         9     9        0.000000        0.430355         3    ;  uncertainty k = 0.503265
         6         5         3         9     9      180.000000       -1.115433         4    ;  uncertainty k = 0.261449
         6         5         3        17     9        0.000000       -1.273222         1    ;  uncertainty k = 0.307608
         6         5         3        17     9      180.000000       -0.212994         2    ;  uncertainty k = 0.243090
         6         5         3        17     9        0.000000       -0.233815         3    ;  uncertainty k = 0.061311
         6         5         3        17     9      180.000000       -0.144420         4    ;  uncertainty k = 0.051286
         6         5        10        11     9        0.000000        0.365179         1    ;  uncertainty k = 0.381956
         6         5        10        11     9      180.000000        0.212131         2    ;  uncertainty k = 0.301001
         6         5        10        11     9        0.000000        0.181087         3    ;  uncertainty k = 0.072733
         6         5        10        11     9      180.000000        0.343018         4    ;  uncertainty k = 0.126684
         6         5        10        18     9        0.000000        0.944364         1    ;  uncertainty k = 0.463017
         6         5        10        18     9      180.000000       -0.511752         2    ;  uncertainty k = 0.348976
         6         5        10        18     9        0.000000        0.327111         3    ;  uncertainty k = 0.178626
         6         5        10        18     9      180.000000        0.059980         4    ;  uncertainty k = 0.085878
         6         7         8         9     9        0.000000       -5.487464         1    ;  uncertainty k = 0.622101
         6         7         8         9     9      180.000000        0.630063         2    ;  uncertainty k = 0.545359
         6         7         8         9     9        0.000000        1.367198         3    ;  uncertainty k = 0.173804
         6         7         8         9     9      180.000000       -1.032851         4    ;  uncertainty k = 0.273094
         6         7         8        43     9        0.000000       -1.226844         1    ;  uncertainty k = 0.266748
         6         7         8        43     9      180.000000       -0.345485         2    ;  uncertainty k = 0.101300
         6         7         8        43     9        0.000000        0.394880         3    ;  uncertainty k = 0.108227
         6         7         8        43     9      180.000000       -0.070781         4    ;  uncertainty k = 0.048007
         6         7         8        44     9        0.000000       -1.226844         1    ;  uncertainty k = 0.266748
         6         7         8        44     9      180.000000       -0.345485         2    ;  uncertainty k = 0.101300
         6         7         8        44     9        0.000000        0.394880         3    ;  uncertainty k = 0.108227
         6         7         8        44     9      180.000000       -0.070781         4    ;  uncertainty k = 0.048007
         6         7        35        36     9        0.000000       -1.170185         1    ;  uncertainty k = 0.334655
         6         7        35        36     9      180.000000        4.880266         2    ;  uncertainty k = 0.323686
         6         7        35        36     9        0.000000        1.279706         3    ;  uncertainty k = 0.118363
         6         7        35        36     9      180.000000        0.575624         4    ;  uncertainty k = 0.083005
         6         7        35        37     9        0.000000       -1.631697         1    ;  uncertainty k = 0.279350
         6         7        35        37     9      180.000000        3.392199         2    ;  uncertainty k = 0.510159
         6         7        35        37     9        0.000000        0.814553         3    ;  uncertainty k = 0.127255
         6         7        35        37     9      180.000000        0.128487         4    ;  uncertainty k = 0.053904
         7         6         5        10     9        0.000000       -2.823350         1    ;  uncertainty k = 0.488930
         7         6         5        10     9      180.000000       -0.460801         2    ;  uncertainty k = 0.536332
         7         6         5        10     9        0.000000        0.760014         3    ;  uncertainty k = 0.189206
         7         6         5        10     9      180.000000       -0.140462         4    ;  uncertainty k = 0.174339
         7         6         5        53     9        0.000000       -0.729544         1    ;  uncertainty k = 0.497030
         7         6         5        53     9      180.000000       -0.791957         2    ;  uncertainty k = 0.456970
         7         6         5        53     9        0.000000       -0.041902         3    ;  uncertainty k = 0.196139
         7         6         5        53     9      180.000000       -0.091107         4    ;  uncertainty k = 0.082280
         7         8         9        45     9        0.000000       -1.242142         1    ;  uncertainty k = 0.333100
         7         8         9        45     9      180.000000       -0.547474         2    ;  uncertainty k = 0.199769
         7         8         9        45     9        0.000000        0.486958         3    ;  uncertainty k = 0.161841
         7         8         9        45     9      180.000000       -0.063234         4    ;  uncertainty k = 0.050819
         7         8         9        46     9        0.000000       -1.242142         1    ;  uncertainty k = 0.333100
         7         8         9        46     9      180.000000       -0.547474         2    ;  uncertainty k = 0.199769
         7         8         9        46     9        0.000000        0.486958         3    ;  uncertainty k = 0.161841
         7         8         9        46     9      180.000000       -0.063234         4    ;  uncertainty k = 0.050819
         7        35        37        38     9        0.000000        9.050821         1    ;  uncertainty k = 0.304912
         7        35        37        38     9      180.000000        6.374692         2    ;  uncertainty k = 0.405917
         7        35        37        38     9        0.000000        1.178678         3    ;  uncertainty k = 0.297789
         7        35        37        38     9      180.000000        0.054538         4    ;  uncertainty k = 0.124306
         7        35        37        39     9        0.000000        9.050821         1    ;  uncertainty k = 0.304912
         7        35        37        39     9      180.000000        6.374692         2    ;  uncertainty k = 0.405917
         7        35        37        39     9        0.000000        1.178678         3    ;  uncertainty k = 0.297789
         7        35        37        39     9      180.000000        0.054538         4    ;  uncertainty k = 0.124306
         8         7         6        40     9        0.000000       -1.411123         1    ;  uncertainty k = 0.345622
         8         7         6        40     9      180.000000       -0.225290         2    ;  uncertainty k = 0.172594
         8         7         6        40     9        0.000000        0.346843         3    ;  uncertainty k = 0.114252
         8         7         6        40     9      180.000000       -0.038457         4    ;  uncertainty k = 0.044896
         8         7         6        41     9        0.000000       -1.411123         1    ;  uncertainty k = 0.345622
         8         7         6        41     9      180.000000       -0.225290         2    ;  uncertainty k = 0.172594
         8         7         6        41     9        0.000000        0.346843         3    ;  uncertainty k = 0.114252
         8         7         6        41     9      180.000000       -0.038457         4    ;  uncertainty k = 0.044896
         8         7        35        36     9        0.000000       -1.412751         1    ;  uncertainty k = 0.366362
         8         7        35        36     9      180.000000        4.939282         2    ;  uncertainty k = 0.250194
         8         7        35        36     9        0.000000        1.341107         3    ;  uncertainty k = 0.099404
         8         7        35        36     9      180.000000        0.562838         4    ;  uncertainty k = 0.064019
         8         7        35        37     9        0.000000       -1.501807         1    ;  uncertainty k = 0.463410
         8         7        35        37     9      180.000000        3.323275         2    ;  uncertainty k = 0.502078
         8         7        35        37     9        0.000000        0.807080         3    ;  uncertainty k = 0.124119
         8         7        35        37     9      180.000000        0.125518         4    ;  uncertainty k = 0.039696
         8         9         3        17     9        0.000000       -1.458221         1    ;  uncertainty k = 0.303158
         8         9         3        17     9      180.000000       -0.255606         2    ;  uncertainty k = 0.240018
         8         9         3        17     9        0.000000        0.029639         3    ;  uncertainty k = 0.100360
         8         9         3        17     9      180.000000       -0.150287         4    ;  uncertainty k = 0.106318
         9         3         2        16     9        0.000000        0.451699         1    ;  uncertainty k = 0.624313
         9         3         2        16     9      180.000000       -0.591122         2    ;  uncertainty k = 0.326339
         9         3         2        16     9        0.000000        0.303214         3    ;  uncertainty k = 0.120934
         9         3         2        16     9      180.000000        0.042038         4    ;  uncertainty k = 0.052513
         9         3         5        10     9        0.000000       -2.807744         1    ;  uncertainty k = 0.487567
         9         3         5        10     9      180.000000       -0.105251         2    ;  uncertainty k = 0.383353
         9         3         5        10     9        0.000000        0.586298         3    ;  uncertainty k = 0.173542
         9         3         5        10     9      180.000000       -0.070878         4    ;  uncertainty k = 0.195095
         9         3         5        53     9        0.000000       -1.272125         1    ;  uncertainty k = 0.255827
         9         3         5        53     9      180.000000       -0.302272         2    ;  uncertainty k = 0.366703
         9         3         5        53     9        0.000000       -0.215970         3    ;  uncertainty k = 0.081625
         9         3         5        53     9      180.000000       -0.166477         4    ;  uncertainty k = 0.069123
         9         8         7        35     9        0.000000       -3.041090         1    ;  uncertainty k = 1.250697
         9         8         7        35     9      180.000000       -0.383141         2    ;  uncertainty k = 0.506412
         9         8         7        35     9        0.000000        0.568121         3    ;  uncertainty k = 0.143697
         9         8         7        35     9      180.000000        0.124098         4    ;  uncertainty k = 0.149878
         9         8         7        42     9        0.000000       -2.462407         1    ;  uncertainty k = 0.395127
         9         8         7        42     9      180.000000        0.138659         2    ;  uncertainty k = 0.106163
         9         8         7        42     9        0.000000        0.247790         3    ;  uncertainty k = 0.112075
         9         8         7        42     9      180.000000       -0.234904         4    ;  uncertainty k = 0.140378
        10         5         3        17     9        0.000000        0.047715         1    ;  uncertainty k = 1.092912
        10         5         3        17     9      180.000000       -1.470377         2    ;  uncertainty k = 0.516462
        10         5         3        17     9        0.000000        0.499603         3    ;  uncertainty k = 0.269005
        10         5         3        17     9      180.000000       -0.254248         4    ;  uncertainty k = 0.119856
        10         5         6        40     9        0.000000       -0.426053         1    ;  uncertainty k = 0.715619
        10         5         6        40     9      180.000000       -1.218663         2    ;  uncertainty k = 0.323961
        10         5         6        40     9        0.000000        0.959757         3    ;  uncertainty k = 0.057975
        10         5         6        40     9      180.000000       -0.287486         4    ;  uncertainty k = 0.054397
        10         5         6        41     9        0.000000       -0.426053         1    ;  uncertainty k = 0.715619
        10         5         6        41     9      180.000000       -1.218663         2    ;  uncertainty k = 0.323961
        10         5         6        41     9        0.000000        0.959757         3    ;  uncertainty k = 0.057975
        10         5         6        41     9      180.000000       -0.287486         4    ;  uncertainty k = 0.054397
        10        11        12        14     9        0.000000        2.331066         1    ;  uncertainty k = 1.152102
        10        11        12        14     9      180.000000        2.596169         2    ;  uncertainty k = 0.278815
        10        11        12        14     9        0.000000        0.009927         3    ;  uncertainty k = 0.144977
        10        11        12        14     9      180.000000       -0.114334         4    ;  uncertainty k = 0.149289
        10        11        12        15     9        0.000000        3.367960         1    ;  uncertainty k = 1.051353
        10        11        12        15     9      180.000000        3.218021         2    ;  uncertainty k = 0.680396
        10        11        12        15     9        0.000000        1.143577         3    ;  uncertainty k = 0.311002
        10        11        12        15     9      180.000000       -0.348976         4    ;  uncertainty k = 0.193639
        11        10         5        53     9        0.000000        1.089600         1    ;  uncertainty k = 0.336795
        11        10         5        53     9      180.000000       -0.431387         2    ;  uncertainty k = 0.172745
        11        10         5        53     9        0.000000        0.083106         3    ;  uncertainty k = 0.110757
        11        10         5        53     9      180.000000        0.217749         4    ;  uncertainty k = 0.051819
        11        12        14        19     9        0.000000        0.338836         1    ;  uncertainty k = 0.784673
        11        12        14        19     9      180.000000       19.192857         2    ;  uncertainty k = 0.359716
        11        12        14        19     9        0.000000        1.903447         3    ;  uncertainty k = 0.386883
        11        12        14        19     9      180.000000        1.368535         4    ;  uncertainty k = 0.528772
        11        12        15        20     9        0.000000        0.370727         1    ;  uncertainty k = 1.804242
        11        12        15        20     9      180.000000        8.920830         2    ;  uncertainty k = 1.081273
        11        12        15        20     9        0.000000        0.589745         3    ;  uncertainty k = 1.110553
        11        12        15        20     9      180.000000        0.676613         4    ;  uncertainty k = 0.547063
        12        11        10        18     9        0.000000       -0.086051         1    ;  uncertainty k = 0.569285
        12        11        10        18     9      180.000000        6.824223         2    ;  uncertainty k = 1.004102
        12        11        10        18     9        0.000000        2.774672         3    ;  uncertainty k = 0.278048
        12        11        10        18     9      180.000000        0.087878         4    ;  uncertainty k = 0.345011
        12        14        19        20     9        0.000000       -0.476241         1    ;  uncertainty k = 0.425307
        12        14        19        20     9      180.000000       15.671500         2    ;  uncertainty k = 0.795841
        12        14        19        20     9        0.000000       -2.864533         3    ;  uncertainty k = 0.780902
        12        14        19        20     9      180.000000        1.605024         4    ;  uncertainty k = 0.448125
        12        14        19        24     9        0.000000        0.569206         1    ;  uncertainty k = 1.621980
        12        14        19        24     9      180.000000       12.800205         2    ;  uncertainty k = 0.282748
        12        14        19        24     9        0.000000        1.817073         3    ;  uncertainty k = 0.361654
        12        14        19        24     9      180.000000        0.682642         4    ;  uncertainty k = 0.136948
        12        15        20        19     9        0.000000       -0.523789         1    ;  uncertainty k = 1.004169
        12        15        20        19     9      180.000000       13.442345         2    ;  uncertainty k = 0.923619
        12        15        20        19     9        0.000000       -9.024257         3    ;  uncertainty k = 1.660071
        12        15        20        19     9      180.000000        1.636793         4    ;  uncertainty k = 0.487983
        12        15        20        21     9        0.000000        1.116166         1    ;  uncertainty k = 1.266411
        12        15        20        21     9      180.000000       10.158909         2    ;  uncertainty k = 0.818049
        12        15        20        21     9        0.000000        0.724355         3    ;  uncertainty k = 0.566010
        12        15        20        21     9      180.000000       -0.026620         4    ;  uncertainty k = 0.200593
        13        11        10        18     9        0.000000        2.038363         1    ;  uncertainty k = 0.746143
        13        11        10        18     9      180.000000       14.699346         2    ;  uncertainty k = 0.325315
        13        11        10        18     9        0.000000        1.840592         3    ;  uncertainty k = 0.226058
        13        11        10        18     9      180.000000       -0.518143         4    ;  uncertainty k = 0.264067
        13        11        12        14     9        0.000000       -0.975565         1    ;  uncertainty k = 1.614283
        13        11        12        14     9      180.000000        3.488550         2    ;  uncertainty k = 0.286154
        13        11        12        14     9        0.000000        0.632000         3    ;  uncertainty k = 0.220397
        13        11        12        14     9      180.000000        0.223278         4    ;  uncertainty k = 0.063243
        13        11        12        15     9        0.000000       -0.928770         1    ;  uncertainty k = 0.780300
        13        11        12        15     9      180.000000        4.634695         2    ;  uncertainty k = 0.475093
        13        11        12        15     9        0.000000        0.007574         3    ;  uncertainty k = 0.071977
        13        11        12        15     9      180.000000        0.288910         4    ;  uncertainty k = 0.240907
        14        12        15        20     9        0.000000        0.143511         1    ;  uncertainty k = 1.333641
        14        12        15        20     9      180.000000       14.564367         2    ;  uncertainty k = 1.374348
        14        12        15        20     9        0.000000       -9.893199         3    ;  uncertainty k = 1.620531
        14        12        15        20     9      180.000000        1.663619         4    ;  uncertainty k = 0.759588
        14        19        20        15     9        0.000000        0.087022         1    ;  uncertainty k = 0.519435
        14        19        20        15     9      180.000000       17.308740         2    ;  uncertainty k = 0.865665
        14        19        20        15     9        0.000000       -2.374264         3    ;  uncertainty k = 0.748324
        14        19        20        15     9      180.000000        1.160228         4    ;  uncertainty k = 0.641111
        14        19        20        21     9        0.000000        0.011055         1    ;  uncertainty k = 0.425259
        14        19        20        21     9      180.000000       14.953749         2    ;  uncertainty k = 0.328993
        14        19        20        21     9        0.000000        1.241934         3    ;  uncertainty k = 0.342959
        14        19        20        21     9      180.000000        1.144042         4    ;  uncertainty k = 0.470191
        14        19        24        23     9        0.000000       -3.954572         1    ;  uncertainty k = 1.035742
        14        19        24        23     9      180.000000        1.199577         2    ;  uncertainty k = 0.494541
        14        19        24        23     9        0.000000        0.552603         3    ;  uncertainty k = 0.196554
        14        19        24        23     9      180.000000        0.408701         4    ;  uncertainty k = 0.071879
        14        19        24        30     9        0.000000        0.678330         1    ;  uncertainty k = 0.150352
        14        19        24        30     9      180.000000        1.438459         2    ;  uncertainty k = 0.504096
        14        19        24        30     9        0.000000        0.609129         3    ;  uncertainty k = 0.196471
        14        19        24        30     9      180.000000        0.167234         4    ;  uncertainty k = 0.108981
        14        19        24        31     9        0.000000        0.678330         1    ;  uncertainty k = 0.150352
        14        19        24        31     9      180.000000        1.438459         2    ;  uncertainty k = 0.504096
        14        19        24        31     9        0.000000        0.609129         3    ;  uncertainty k = 0.196471
        14        19        24        31     9      180.000000        0.167234         4    ;  uncertainty k = 0.108981
        15        12        14        19     9        0.000000       -0.152600         1    ;  uncertainty k = 0.906407
        15        12        14        19     9      180.000000       20.432965         2    ;  uncertainty k = 0.275340
        15        12        14        19     9        0.000000       -2.337892         3    ;  uncertainty k = 1.016825
        15        12        14        19     9      180.000000        1.938626         4    ;  uncertainty k = 0.362221
        15        20        19        24     9        0.000000        0.239944         1    ;  uncertainty k = 0.547138
        15        20        19        24     9      180.000000       12.400727         2    ;  uncertainty k = 0.549556
        15        20        19        24     9        0.000000        0.936373         3    ;  uncertainty k = 0.318788
        15        20        19        24     9      180.000000        0.958147         4    ;  uncertainty k = 0.190163
        15        20        21        22     9        0.000000       -8.471687         1    ;  uncertainty k = 1.305576
        15        20        21        22     9      180.000000       -0.738803         2    ;  uncertainty k = 0.986263
        15        20        21        22     9        0.000000        0.572190         3    ;  uncertainty k = 0.535086
        15        20        21        22     9      180.000000        0.223231         4    ;  uncertainty k = 0.263405
        15        20        21        26     9        0.000000        0.153964         1    ;  uncertainty k = 0.629108
        15        20        21        26     9      180.000000        0.393717         2    ;  uncertainty k = 0.317135
        15        20        21        26     9        0.000000        0.658149         3    ;  uncertainty k = 0.161833
        15        20        21        26     9      180.000000       -0.071880         4    ;  uncertainty k = 0.067074
        15        20        21        27     9        0.000000        0.153964         1    ;  uncertainty k = 0.629108
        15        20        21        27     9      180.000000        0.393717         2    ;  uncertainty k = 0.317135
        15        20        21        27     9        0.000000        0.658149         3    ;  uncertainty k = 0.161833
        15        20        21        27     9      180.000000       -0.071880         4    ;  uncertainty k = 0.067074
        16         2         1        54     9        0.000000        1.814956         1    ;  uncertainty k = 1.255915
        16         2         1        54     9      180.000000        6.985735         2    ;  uncertainty k = 0.814403
        16         2         1        54     9        0.000000        2.792562         3    ;  uncertainty k = 0.305655
        16         2         1        54     9      180.000000        0.120316         4    ;  uncertainty k = 0.283222
        16         2         3        17     9        0.000000        0.737397         1    ;  uncertainty k = 0.381566
        16         2         3        17     9      180.000000       -0.784416         2    ;  uncertainty k = 0.251460
        16         2         3        17     9        0.000000        0.224312         3    ;  uncertainty k = 0.152798
        16         2         3        17     9      180.000000        0.146133         4    ;  uncertainty k = 0.056776
        17         3         5        53     9        0.000000        1.513385         1    ;  uncertainty k = 0.281707
        17         3         5        53     9      180.000000       -0.677905         2    ;  uncertainty k = 0.153637
        17         3         5        53     9        0.000000       -0.218104         3    ;  uncertainty k = 0.163610
        17         3         5        53     9      180.000000       -0.044998         4    ;  uncertainty k = 0.125017
        17         3         9        45     9        0.000000        1.377021         1    ;  uncertainty k = 0.282677
        17         3         9        45     9      180.000000       -0.517245         2    ;  uncertainty k = 0.207401
        17         3         9        45     9        0.000000       -0.079662         3    ;  uncertainty k = 0.113098
        17         3         9        45     9      180.000000        0.041721         4    ;  uncertainty k = 0.028124
        17         3         9        46     9        0.000000        1.377021         1    ;  uncertainty k = 0.282677
        17         3         9        46     9      180.000000       -0.517245         2    ;  uncertainty k = 0.207401
        17         3         9        46     9        0.000000       -0.079662         3    ;  uncertainty k = 0.113098
        17         3         9        46     9      180.000000        0.041721         4    ;  uncertainty k = 0.028124
        18        10         5        53     9        0.000000        0.543896         1    ;  uncertainty k = 0.397136
        18        10         5        53     9      180.000000       -0.624323         2    ;  uncertainty k = 0.182566
        18        10         5        53     9        0.000000        0.192235         3    ;  uncertainty k = 0.116009
        18        10         5        53     9      180.000000        0.189280         4    ;  uncertainty k = 0.076527
        19        20        21        22     9        0.000000       -4.140071         1    ;  uncertainty k = 1.925675
        19        20        21        22     9      180.000000        2.074247         2    ;  uncertainty k = 0.552905
        19        20        21        22     9        0.000000       -0.109904         3    ;  uncertainty k = 0.505232
        19        20        21        22     9      180.000000        0.002033         4    ;  uncertainty k = 0.168271
        19        20        21        26     9        0.000000        0.751076         1    ;  uncertainty k = 0.572851
        19        20        21        26     9      180.000000        0.321327         2    ;  uncertainty k = 0.277446
        19        20        21        26     9        0.000000       -0.191165         3    ;  uncertainty k = 0.140749
        19        20        21        26     9      180.000000       -0.337116         4    ;  uncertainty k = 0.203995
        19        20        21        27     9        0.000000        0.751076         1    ;  uncertainty k = 0.572851
        19        20        21        27     9      180.000000        0.321327         2    ;  uncertainty k = 0.277446
        19        20        21        27     9        0.000000       -0.191165         3    ;  uncertainty k = 0.140749
        19        20        21        27     9      180.000000       -0.337116         4    ;  uncertainty k = 0.203995
        19        24        23        22     9        0.000000       -2.230974         1    ;  uncertainty k = 1.801449
        19        24        23        22     9      180.000000       -1.841150         2    ;  uncertainty k = 0.733686
        19        24        23        22     9        0.000000        2.407959         3    ;  uncertainty k = 0.680334
        19        24        23        22     9      180.000000       -0.535745         4    ;  uncertainty k = 0.301690
        19        24        23        28     9        0.000000        1.199598         1    ;  uncertainty k = 0.377899
        19        24        23        28     9      180.000000       -1.613470         2    ;  uncertainty k = 0.549592
        19        24        23        28     9        0.000000        0.472706         3    ;  uncertainty k = 0.260800
        19        24        23        28     9      180.000000        0.111560         4    ;  uncertainty k = 0.091588
        19        24        23        29     9        0.000000        1.199598         1    ;  uncertainty k = 0.377899
        19        24        23        29     9      180.000000       -1.613470         2    ;  uncertainty k = 0.549592
        19        24        23        29     9        0.000000        0.472706         3    ;  uncertainty k = 0.260800
        19        24        23        29     9      180.000000        0.111560         4    ;  uncertainty k = 0.091588
        20        19        24        23     9        0.000000       -4.440652         1    ;  uncertainty k = 1.431166
        20        19        24        23     9      180.000000        4.155396         2    ;  uncertainty k = 1.296225
        20        19        24        23     9        0.000000       -0.642889         3    ;  uncertainty k = 0.597439
        20        19        24        23     9      180.000000       -0.217610         4    ;  uncertainty k = 0.318749
        20        19        24        30     9        0.000000        0.013025         1    ;  uncertainty k = 0.359065
        20        19        24        30     9      180.000000        1.250042         2    ;  uncertainty k = 0.490358
        20        19        24        30     9        0.000000        0.121610         3    ;  uncertainty k = 0.182463
        20        19        24        30     9      180.000000       -0.043715         4    ;  uncertainty k = 0.054548
        20        19        24        31     9        0.000000        0.013025         1    ;  uncertainty k = 0.359065
        20        19        24        31     9      180.000000        1.250042         2    ;  uncertainty k = 0.490358
        20        19        24        31     9        0.000000        0.121610         3    ;  uncertainty k = 0.182463
        20        19        24        31     9      180.000000       -0.043715         4    ;  uncertainty k = 0.054548
        20        21        22        23     9        0.000000       -2.931117         1    ;  uncertainty k = 2.436693
        20        21        22        23     9      180.000000       -1.451129         2    ;  uncertainty k = 0.464093
        20        21        22        23     9        0.000000        1.404828         3    ;  uncertainty k = 0.130307
        20        21        22        23     9      180.000000       -0.528609         4    ;  uncertainty k = 0.249297
        20        21        22        25     9        0.000000       -2.021362         1    ;  uncertainty k = 1.008927
        20        21        22        25     9      180.000000       -1.118312         2    ;  uncertainty k = 0.472230
        20        21        22        25     9        0.000000        1.258207         3    ;  uncertainty k = 0.234248
        20        21        22        25     9      180.000000       -0.045254         4    ;  uncertainty k = 0.250793
        21        20        19        24     9        0.000000        0.282381         1    ;  uncertainty k = 0.657141
        21        20        19        24     9      180.000000       10.551064         2    ;  uncertainty k = 0.221306
        21        20        19        24     9        0.000000        1.077819         3    ;  uncertainty k = 0.516713
        21        20        19        24     9      180.000000        0.991474         4    ;  uncertainty k = 0.186199
        21        22        23        24     9        0.000000       -4.350974         1    ;  uncertainty k = 2.057076
        21        22        23        24     9      180.000000       -1.496991         2    ;  uncertainty k = 0.799614
        21        22        23        24     9        0.000000        0.281379         3    ;  uncertainty k = 0.338606
        21        22        23        24     9      180.000000       -0.187310         4    ;  uncertainty k = 0.252807
        21        22        23        28     9        0.000000       -6.987612         1    ;  uncertainty k = 0.982733
        21        22        23        28     9      180.000000       -0.297910         2    ;  uncertainty k = 0.446998
        21        22        23        28     9        0.000000        0.675891         3    ;  uncertainty k = 0.207193
        21        22        23        28     9      180.000000       -0.045061         4    ;  uncertainty k = 0.100310
        21        22        23        29     9        0.000000       -6.987612         1    ;  uncertainty k = 0.982733
        21        22        23        29     9      180.000000       -0.297910         2    ;  uncertainty k = 0.446998
        21        22        23        29     9        0.000000        0.675891         3    ;  uncertainty k = 0.207193
        21        22        23        29     9      180.000000       -0.045061         4    ;  uncertainty k = 0.100310
        21        22        25        32     9        0.000000       -4.178510         1    ;  uncertainty k = 0.410688
        21        22        25        32     9      180.000000       -2.187807         2    ;  uncertainty k = 0.398638
        21        22        25        32     9        0.000000        1.157619         3    ;  uncertainty k = 0.069416
        21        22        25        32     9      180.000000        0.075129         4    ;  uncertainty k = 0.097696
        21        22        25        33     9        0.000000       -4.178510         1    ;  uncertainty k = 0.410688
        21        22        25        33     9      180.000000       -2.187807         2    ;  uncertainty k = 0.398638
        21        22        25        33     9        0.000000        1.157619         3    ;  uncertainty k = 0.069416
        21        22        25        33     9      180.000000        0.075129         4    ;  uncertainty k = 0.097696
        21        22        25        34     9        0.000000       -4.178510         1    ;  uncertainty k = 0.410688
        21        22        25        34     9      180.000000       -2.187807         2    ;  uncertainty k = 0.398638
        21        22        25        34     9        0.000000        1.157619         3    ;  uncertainty k = 0.069416
        21        22        25        34     9      180.000000        0.075129         4    ;  uncertainty k = 0.097696
        22        23        24        30     9        0.000000       -0.446420         1    ;  uncertainty k = 0.389425
        22        23        24        30     9      180.000000       -0.446895         2    ;  uncertainty k = 0.443633
        22        23        24        30     9        0.000000        1.043482         3    ;  uncertainty k = 0.139130
        22        23        24        30     9      180.000000       -0.054508         4    ;  uncertainty k = 0.166266
        22        23        24        31     9        0.000000       -0.446420         1    ;  uncertainty k = 0.389425
        22        23        24        31     9      180.000000       -0.446895         2    ;  uncertainty k = 0.443633
        22        23        24        31     9        0.000000        1.043482         3    ;  uncertainty k = 0.139130
        22        23        24        31     9      180.000000       -0.054508         4    ;  uncertainty k = 0.166266
        23        22        21        26     9        0.000000       -4.951174         1    ;  uncertainty k = 1.276230
        23        22        21        26     9      180.000000       -0.772512         2    ;  uncertainty k = 0.594344
        23        22        21        26     9        0.000000        0.687582         3    ;  uncertainty k = 0.234878
        23        22        21        26     9      180.000000        0.165440         4    ;  uncertainty k = 0.126758
        23        22        21        27     9        0.000000       -4.951174         1    ;  uncertainty k = 1.276230
        23        22        21        27     9      180.000000       -0.772512         2    ;  uncertainty k = 0.594344
        23        22        21        27     9        0.000000        0.687582         3    ;  uncertainty k = 0.234878
        23        22        21        27     9      180.000000        0.165440         4    ;  uncertainty k = 0.126758
        23        22        25        32     9        0.000000       -4.259086         1    ;  uncertainty k = 0.974846
        23        22        25        32     9      180.000000       -2.027003         2    ;  uncertainty k = 0.417753
        23        22        25        32     9        0.000000        1.017651         3    ;  uncertainty k = 0.103023
        23        22        25        32     9      180.000000        0.065258         4    ;  uncertainty k = 0.091860
        23        22        25        33     9        0.000000       -4.259086         1    ;  uncertainty k = 0.974846
        23        22        25        33     9      180.000000       -2.027003         2    ;  uncertainty k = 0.417753
        23        22        25        33     9        0.000000        1.017651         3    ;  uncertainty k = 0.103023
        23        22        25        33     9      180.000000        0.065258         4    ;  uncertainty k = 0.091860
        23        22        25        34     9        0.000000       -4.259086         1    ;  uncertainty k = 0.974846
        23        22        25        34     9      180.000000       -2.027003         2    ;  uncertainty k = 0.417753
        23        22        25        34     9        0.000000        1.017651         3    ;  uncertainty k = 0.103023
        23        22        25        34     9      180.000000        0.065258         4    ;  uncertainty k = 0.091860
        24        23        22        25     9        0.000000       -2.366425         1    ;  uncertainty k = 0.799682
        24        23        22        25     9      180.000000       -0.858215         2    ;  uncertainty k = 0.575132
        24        23        22        25     9        0.000000        0.300582         3    ;  uncertainty k = 0.302529
        24        23        22        25     9      180.000000        0.326407         4    ;  uncertainty k = 0.081722
        25        22        21        26     9        0.000000       -2.503106         1    ;  uncertainty k = 0.610923
        25        22        21        26     9      180.000000       -1.207857         2    ;  uncertainty k = 0.461275
        25        22        21        26     9        0.000000        0.607046         3    ;  uncertainty k = 0.147323
        25        22        21        26     9      180.000000        0.178325         4    ;  uncertainty k = 0.088460
        25        22        21        27     9        0.000000       -2.503106         1    ;  uncertainty k = 0.610923
        25        22        21        27     9      180.000000       -1.207857         2    ;  uncertainty k = 0.461275
        25        22        21        27     9        0.000000        0.607046         3    ;  uncertainty k = 0.147323
        25        22        21        27     9      180.000000        0.178325         4    ;  uncertainty k = 0.088460
        25        22        23        28     9        0.000000       -3.143701         1    ;  uncertainty k = 0.576024
        25        22        23        28     9      180.000000       -1.381403         2    ;  uncertainty k = 0.223671
        25        22        23        28     9        0.000000        0.354530         3    ;  uncertainty k = 0.126408
        25        22        23        28     9      180.000000        0.148173         4    ;  uncertainty k = 0.137426
        25        22        23        29     9        0.000000       -3.143701         1    ;  uncertainty k = 0.576024
        25        22        23        29     9      180.000000       -1.381403         2    ;  uncertainty k = 0.223671
        25        22        23        29     9        0.000000        0.354530         3    ;  uncertainty k = 0.126408
        25        22        23        29     9      180.000000        0.148173         4    ;  uncertainty k = 0.137426
        28        23        24        30     9        0.000000       -0.690419         1    ;  uncertainty k = 0.249272
        28        23        24        30     9      180.000000        0.819889         2    ;  uncertainty k = 0.297922
        28        23        24        30     9        0.000000        0.232501         3    ;  uncertainty k = 0.086816
        28        23        24        30     9      180.000000       -0.277806         4    ;  uncertainty k = 0.067741
        28        23        24        31     9        0.000000       -0.690419         1    ;  uncertainty k = 0.249272
        28        23        24        31     9      180.000000        0.819889         2    ;  uncertainty k = 0.297922
        28        23        24        31     9        0.000000        0.232501         3    ;  uncertainty k = 0.086816
        28        23        24        31     9      180.000000       -0.277806         4    ;  uncertainty k = 0.067741
        29        23        24        30     9        0.000000       -0.690419         1    ;  uncertainty k = 0.249272
        29        23        24        30     9      180.000000        0.819889         2    ;  uncertainty k = 0.297922
        29        23        24        30     9        0.000000        0.232501         3    ;  uncertainty k = 0.086816
        29        23        24        30     9      180.000000       -0.277806         4    ;  uncertainty k = 0.067741
        29        23        24        31     9        0.000000       -0.690419         1    ;  uncertainty k = 0.249272
        29        23        24        31     9      180.000000        0.819889         2    ;  uncertainty k = 0.297922
        29        23        24        31     9        0.000000        0.232501         3    ;  uncertainty k = 0.086816
        29        23        24        31     9      180.000000       -0.277806         4    ;  uncertainty k = 0.067741
        35         7         6        40     9        0.000000        2.074967         1    ;  uncertainty k = 0.921198
        35         7         6        40     9      180.000000       -0.794571         2    ;  uncertainty k = 0.180952
        35         7         6        40     9        0.000000        0.466866         3    ;  uncertainty k = 0.273235
        35         7         6        40     9      180.000000        0.035537         4    ;  uncertainty k = 0.093276
        35         7         6        41     9        0.000000        2.074967         1    ;  uncertainty k = 0.921198
        35         7         6        41     9      180.000000       -0.794571         2    ;  uncertainty k = 0.180952
        35         7         6        41     9        0.000000        0.466866         3    ;  uncertainty k = 0.273235
        35         7         6        41     9      180.000000        0.035537         4    ;  uncertainty k = 0.093276
        35         7         8        43     9        0.000000        2.252951         1    ;  uncertainty k = 0.998081
        35         7         8        43     9      180.000000       -0.859965         2    ;  uncertainty k = 0.120364
        35         7         8        43     9        0.000000        0.534711         3    ;  uncertainty k = 0.219264
        35         7         8        43     9      180.000000        0.057172         4    ;  uncertainty k = 0.086080
        35         7         8        44     9        0.000000        2.252951         1    ;  uncertainty k = 0.998081
        35         7         8        44     9      180.000000       -0.859965         2    ;  uncertainty k = 0.120364
        35         7         8        44     9        0.000000        0.534711         3    ;  uncertainty k = 0.219264
        35         7         8        44     9      180.000000        0.057172         4    ;  uncertainty k = 0.086080
        35        37        38        47     9        0.000000        0.159650         1    ;  uncertainty k = 0.146342
        35        37        38        47     9      180.000000       -0.144813         2    ;  uncertainty k = 0.094204
        35        37        38        47     9        0.000000        0.215227         3    ;  uncertainty k = 0.050987
        35        37        38        47     9      180.000000        0.244118         4    ;  uncertainty k = 0.052779
        35        37        38        48     9        0.000000        0.159650         1    ;  uncertainty k = 0.146342
        35        37        38        48     9      180.000000       -0.144813         2    ;  uncertainty k = 0.094204
        35        37        38        48     9        0.000000        0.215227         3    ;  uncertainty k = 0.050987
        35        37        38        48     9      180.000000        0.244118         4    ;  uncertainty k = 0.052779
        35        37        38        49     9        0.000000        0.159650         1    ;  uncertainty k = 0.146342
        35        37        38        49     9      180.000000       -0.144813         2    ;  uncertainty k = 0.094204
        35        37        38        49     9        0.000000        0.215227         3    ;  uncertainty k = 0.050987
        35        37        38        49     9      180.000000        0.244118         4    ;  uncertainty k = 0.052779
        35        37        39        50     9        0.000000        0.159650         1    ;  uncertainty k = 0.146342
        35        37        39        50     9      180.000000       -0.144813         2    ;  uncertainty k = 0.094204
        35        37        39        50     9        0.000000        0.215227         3    ;  uncertainty k = 0.050987
        35        37        39        50     9      180.000000        0.244118         4    ;  uncertainty k = 0.052779
        35        37        39        51     9        0.000000        0.159650         1    ;  uncertainty k = 0.146342
        35        37        39        51     9      180.000000       -0.144813         2    ;  uncertainty k = 0.094204
        35        37        39        51     9        0.000000        0.215227         3    ;  uncertainty k = 0.050987
        35        37        39        51     9      180.000000        0.244118         4    ;  uncertainty k = 0.052779
        35        37        39        52     9        0.000000        0.159650         1    ;  uncertainty k = 0.146342
        35        37        39        52     9      180.000000       -0.144813         2    ;  uncertainty k = 0.094204
        35        37        39        52     9        0.000000        0.215227         3    ;  uncertainty k = 0.050987
        35        37        39        52     9      180.000000        0.244118         4    ;  uncertainty k = 0.052779
        36        35         7        42     9        0.000000       -0.646773         1    ;  uncertainty k = 0.397646
        36        35         7        42     9      180.000000        3.762065         2    ;  uncertainty k = 0.492695
        36        35         7        42     9        0.000000        1.483897         3    ;  uncertainty k = 0.235291
        36        35         7        42     9      180.000000       -0.025919         4    ;  uncertainty k = 0.096422
        36        35        37        38     9        0.000000        6.844605         1    ;  uncertainty k = 0.882211
        36        35        37        38     9      180.000000       19.790839         2    ;  uncertainty k = 0.105250
        36        35        37        38     9        0.000000       -0.220230         3    ;  uncertainty k = 0.161100
        36        35        37        38     9      180.000000       -1.123904         4    ;  uncertainty k = 0.136735
        36        35        37        39     9        0.000000        6.844605         1    ;  uncertainty k = 0.882211
        36        35        37        39     9      180.000000       19.790839         2    ;  uncertainty k = 0.105250
        36        35        37        39     9        0.000000       -0.220230         3    ;  uncertainty k = 0.161100
        36        35        37        39     9      180.000000       -1.123904         4    ;  uncertainty k = 0.136735
        37        35         7        42     9        0.000000       -0.975826         1    ;  uncertainty k = 0.419407
        37        35         7        42     9      180.000000        2.303974         2    ;  uncertainty k = 0.241164
        37        35         7        42     9        0.000000        0.361698         3    ;  uncertainty k = 0.116719
        37        35         7        42     9      180.000000        0.170218         4    ;  uncertainty k = 0.047482
        38        37        39        50     9        0.000000       -0.681994         1    ;  uncertainty k = 0.166187
        38        37        39        50     9      180.000000       -1.033629         2    ;  uncertainty k = 0.139918
        38        37        39        50     9        0.000000        1.312135         3    ;  uncertainty k = 0.057549
        38        37        39        50     9      180.000000        0.172025         4    ;  uncertainty k = 0.029064
        38        37        39        51     9        0.000000       -0.681994         1    ;  uncertainty k = 0.166187
        38        37        39        51     9      180.000000       -1.033629         2    ;  uncertainty k = 0.139918
        38        37        39        51     9        0.000000        1.312135         3    ;  uncertainty k = 0.057549
        38        37        39        51     9      180.000000        0.172025         4    ;  uncertainty k = 0.029064
        38        37        39        52     9        0.000000       -0.681994         1    ;  uncertainty k = 0.166187
        38        37        39        52     9      180.000000       -1.033629         2    ;  uncertainty k = 0.139918
        38        37        39        52     9        0.000000        1.312135         3    ;  uncertainty k = 0.057549
        38        37        39        52     9      180.000000        0.172025         4    ;  uncertainty k = 0.029064
        39        37        38        47     9        0.000000       -0.681994         1    ;  uncertainty k = 0.166187
        39        37        38        47     9      180.000000       -1.033629         2    ;  uncertainty k = 0.139918
        39        37        38        47     9        0.000000        1.312135         3    ;  uncertainty k = 0.057549
        39        37        38        47     9      180.000000        0.172025         4    ;  uncertainty k = 0.029064
        39        37        38        48     9        0.000000       -0.681994         1    ;  uncertainty k = 0.166187
        39        37        38        48     9      180.000000       -1.033629         2    ;  uncertainty k = 0.139918
        39        37        38        48     9        0.000000        1.312135         3    ;  uncertainty k = 0.057549
        39        37        38        48     9      180.000000        0.172025         4    ;  uncertainty k = 0.029064
        39        37        38        49     9        0.000000       -0.681994         1    ;  uncertainty k = 0.166187
        39        37        38        49     9      180.000000       -1.033629         2    ;  uncertainty k = 0.139918
        39        37        38        49     9        0.000000        1.312135         3    ;  uncertainty k = 0.057549
        39        37        38        49     9      180.000000        0.172025         4    ;  uncertainty k = 0.029064
        40         6         5        53     9        0.000000        1.226337         1    ;  uncertainty k = 0.333268
        40         6         5        53     9      180.000000       -0.558738         2    ;  uncertainty k = 0.229595
        40         6         5        53     9        0.000000       -0.052763         3    ;  uncertainty k = 0.147877
        40         6         5        53     9      180.000000        0.050691         4    ;  uncertainty k = 0.043442
        40         6         7        42     9        0.000000        1.275091         1    ;  uncertainty k = 0.308666
        40         6         7        42     9      180.000000       -0.191825         2    ;  uncertainty k = 0.161770
        40         6         7        42     9        0.000000       -0.005639         3    ;  uncertainty k = 0.106020
        40         6         7        42     9      180.000000        0.069270         4    ;  uncertainty k = 0.064132
        41         6         5        53     9        0.000000        1.226337         1    ;  uncertainty k = 0.333268
        41         6         5        53     9      180.000000       -0.558738         2    ;  uncertainty k = 0.229595
        41         6         5        53     9        0.000000       -0.052763         3    ;  uncertainty k = 0.147877
        41         6         5        53     9      180.000000        0.050691         4    ;  uncertainty k = 0.043442
        41         6         7        42     9        0.000000        1.275091         1    ;  uncertainty k = 0.308666
        41         6         7        42     9      180.000000       -0.191825         2    ;  uncertainty k = 0.161770
        41         6         7        42     9        0.000000       -0.005639         3    ;  uncertainty k = 0.106020
        41         6         7        42     9      180.000000        0.069270         4    ;  uncertainty k = 0.064132
        42         7         8        43     9        0.000000        1.375228         1    ;  uncertainty k = 0.292892
        42         7         8        43     9      180.000000       -0.112288         2    ;  uncertainty k = 0.227466
        42         7         8        43     9        0.000000       -0.024960         3    ;  uncertainty k = 0.142904
        42         7         8        43     9      180.000000        0.069958         4    ;  uncertainty k = 0.050452
        42         7         8        44     9        0.000000        1.375228         1    ;  uncertainty k = 0.292892
        42         7         8        44     9      180.000000       -0.112288         2    ;  uncertainty k = 0.227466
        42         7         8        44     9        0.000000       -0.024960         3    ;  uncertainty k = 0.142904
        42         7         8        44     9      180.000000        0.069958         4    ;  uncertainty k = 0.050452
        43         8         9        45     9        0.000000        2.326423         1    ;  uncertainty k = 0.676926
        43         8         9        45     9      180.000000       -0.090332         2    ;  uncertainty k = 0.159897
        43         8         9        45     9        0.000000        0.305999         3    ;  uncertainty k = 0.135712
        43         8         9        45     9      180.000000        0.130735         4    ;  uncertainty k = 0.038641
        43         8         9        46     9        0.000000        2.326423         1    ;  uncertainty k = 0.676926
        43         8         9        46     9      180.000000       -0.090332         2    ;  uncertainty k = 0.159897
        43         8         9        46     9        0.000000        0.305999         3    ;  uncertainty k = 0.135712
        43         8         9        46     9      180.000000        0.130735         4    ;  uncertainty k = 0.038641
        44         8         9        45     9        0.000000        2.326423         1    ;  uncertainty k = 0.676926
        44         8         9        45     9      180.000000       -0.090332         2    ;  uncertainty k = 0.159897
        44         8         9        45     9        0.000000        0.305999         3    ;  uncertainty k = 0.135712
        44         8         9        45     9      180.000000        0.130735         4    ;  uncertainty k = 0.038641
        44         8         9        46     9        0.000000        2.326423         1    ;  uncertainty k = 0.676926
        44         8         9        46     9      180.000000       -0.090332         2    ;  uncertainty k = 0.159897
        44         8         9        46     9        0.000000        0.305999         3    ;  uncertainty k = 0.135712
        44         8         9        46     9      180.000000        0.130735         4    ;  uncertainty k = 0.038641
        54        55        58        59     9        0.000000       -0.506925         1    ;  uncertainty k = 0.482435
        54        55        58        59     9      180.000000       13.257430         2    ;  uncertainty k = 0.645812
        54        55        58        59     9        0.000000       -7.920613         3    ;  uncertainty k = 1.853816
        54        55        58        59     9      180.000000        1.725854         4    ;  uncertainty k = 0.519821
        54        55        58        63     9        0.000000       -0.367649         1    ;  uncertainty k = 1.052628
        54        55        58        63     9      180.000000        5.934388         2    ;  uncertainty k = 0.463401
        54        55        58        63     9        0.000000        0.668010         3    ;  uncertainty k = 0.104729
        54        55        58        63     9      180.000000        0.972706         4    ;  uncertainty k = 0.261701
        54        55        68        69     9        0.000000       -0.426143         1    ;  uncertainty k = 0.814123
        54        55        68        69     9      180.000000        3.571105         2    ;  uncertainty k = 0.816730
        54        55        68        69     9        0.000000        0.336633         3    ;  uncertainty k = 0.241270
        54        55        68        69     9      180.000000        0.402087         4    ;  uncertainty k = 0.103280
        54        55        68        70     9        0.000000        2.895360         1    ;  uncertainty k = 1.460529
        54        55        68        70     9      180.000000        5.557549         2    ;  uncertainty k = 0.152821
        54        55        68        70     9        0.000000        0.176433         3    ;  uncertainty k = 0.236743
        54        55        68        70     9      180.000000        0.358097         4    ;  uncertainty k = 0.196505
        54        56        59        58     9        0.000000        0.227578         1    ;  uncertainty k = 0.768859
        54        56        59        58     9      180.000000       15.193265         2    ;  uncertainty k = 0.714623
        54        56        59        58     9        0.000000       -7.199292         3    ;  uncertainty k = 1.932009
        54        56        59        58     9      180.000000        0.713277         4    ;  uncertainty k = 0.319735
        54        56        59        60     9        0.000000        1.532943         1    ;  uncertainty k = 1.268191
        54        56        59        60     9      180.000000        5.879047         2    ;  uncertainty k = 0.661394
        54        56        59        60     9        0.000000        0.946512         3    ;  uncertainty k = 0.184831
        54        56        59        60     9      180.000000        0.329923         4    ;  uncertainty k = 0.305304
        55        54        56        57     9        0.000000        3.980611         1    ;  uncertainty k = 1.109292
        55        54        56        57     9      180.000000        7.945952         2    ;  uncertainty k = 0.470596
        55        54        56        57     9        0.000000        1.782240         3    ;  uncertainty k = 0.721957
        55        54        56        57     9      180.000000       -0.032128         4    ;  uncertainty k = 0.219569
        55        54        56        59     9        0.000000        0.041152         1    ;  uncertainty k = 0.453581
        55        54        56        59     9      180.000000       16.541734         2    ;  uncertainty k = 0.314715
        55        54        56        59     9        0.000000       -5.421535         3    ;  uncertainty k = 1.076143
        55        54        56        59     9      180.000000        0.765448         4    ;  uncertainty k = 0.587798
        55        58        59        56     9        0.000000       -0.064642         1    ;  uncertainty k = 0.248230
        55        58        59        56     9      180.000000       13.123528         2    ;  uncertainty k = 0.896709
        55        58        59        56     9        0.000000       -3.433809         3    ;  uncertainty k = 1.539326
        55        58        59        56     9      180.000000        1.415871         4    ;  uncertainty k = 0.789976
        55        58        59        60     9        0.000000        0.124195         1    ;  uncertainty k = 0.514791
        55        58        59        60     9      180.000000        7.314458         2    ;  uncertainty k = 0.404365
        55        58        59        60     9        0.000000        0.354526         3    ;  uncertainty k = 0.454871
        55        58        59        60     9      180.000000        1.215988         4    ;  uncertainty k = 0.308945
        55        58        63        62     9        0.000000        0.086167         1    ;  uncertainty k = 0.331203
        55        58        63        62     9      180.000000        9.537912         2    ;  uncertainty k = 0.405668
        55        58        63        62     9        0.000000        0.670589         3    ;  uncertainty k = 0.509760
        55        58        63        62     9      180.000000        1.338980         4    ;  uncertainty k = 0.151511
        55        58        63        67     9        0.000000        0.094665         1    ;  uncertainty k = 0.407438
        55        58        63        67     9      180.000000        6.035737         2    ;  uncertainty k = 0.677365
        55        58        63        67     9        0.000000        1.036000         3    ;  uncertainty k = 0.333054
        55        58        63        67     9      180.000000        0.866062         4    ;  uncertainty k = 0.395722
        55        68        70        71     9        0.000000        9.318372         1    ;  uncertainty k = 0.683075
        55        68        70        71     9      180.000000        7.028331         2    ;  uncertainty k = 0.421608
        55        68        70        71     9        0.000000        0.247240         3    ;  uncertainty k = 0.568143
        55        68        70        71     9      180.000000        0.111206         4    ;  uncertainty k = 0.279668
        55        68        70        72     9        0.000000        9.318372         1    ;  uncertainty k = 0.683075
        55        68        70        72     9      180.000000        7.028331         2    ;  uncertainty k = 0.421608
        55        68        70        72     9        0.000000        0.247240         3    ;  uncertainty k = 0.568143
        55        68        70        72     9      180.000000        0.111206         4    ;  uncertainty k = 0.279668
        56        54        55        58     9        0.000000       -0.311148         1    ;  uncertainty k = 0.227357
        56        54        55        58     9      180.000000       19.984396         2    ;  uncertainty k = 0.150389
        56        54        55        58     9        0.000000       -6.116379         3    ;  uncertainty k = 1.533184
        56        54        55        58     9      180.000000        1.071968         4    ;  uncertainty k = 0.511567
        56        54        55        68     9        0.000000        0.163652         1    ;  uncertainty k = 0.684499
        56        54        55        68     9      180.000000       13.797817         2    ;  uncertainty k = 0.421934
        56        54        55        68     9        0.000000        1.270430         3    ;  uncertainty k = 0.762439
        56        54        55        68     9      180.000000        0.910853         4    ;  uncertainty k = 0.224991
        56        59        58        63     9        0.000000        0.029685         1    ;  uncertainty k = 0.516412
        56        59        58        63     9      180.000000        9.166766         2    ;  uncertainty k = 0.419590
        56        59        58        63     9        0.000000       -0.073726         3    ;  uncertainty k = 0.618148
        56        59        58        63     9      180.000000        1.199939         4    ;  uncertainty k = 0.408492
        56        59        60        61     9        0.000000       -0.023718         1    ;  uncertainty k = 0.257991
        56        59        60        61     9      180.000000       10.656865         2    ;  uncertainty k = 0.436400
        56        59        60        61     9        0.000000        0.684821         3    ;  uncertainty k = 0.255048
        56        59        60        61     9      180.000000        1.179750         4    ;  uncertainty k = 0.259858
        56        59        60        64     9        0.000000        0.132550         1    ;  uncertainty k = 0.367291
        56        59        60        64     9      180.000000        6.338066         2    ;  uncertainty k = 0.586094
        56        59        60        64     9        0.000000        1.187754         3    ;  uncertainty k = 0.360933
        56        59        60        64     9      180.000000        0.792353         4    ;  uncertainty k = 0.302790
        57        56        59        58     9        0.000000        4.041234         1    ;  uncertainty k = 1.250350
        57        56        59        58     9      180.000000        5.873279         2    ;  uncertainty k = 0.846128
        57        56        59        58     9        0.000000        1.324520         3    ;  uncertainty k = 0.452771
        57        56        59        58     9      180.000000        0.227295         4    ;  uncertainty k = 0.117010
        57        56        59        60     9        0.000000        1.060658         1    ;  uncertainty k = 0.947446
        57        56        59        60     9      180.000000        1.506476         2    ;  uncertainty k = 0.780360
        57        56        59        60     9        0.000000        1.280561         3    ;  uncertainty k = 0.426912
        57        56        59        60     9      180.000000        0.201870         4    ;  uncertainty k = 0.264879
        58        55        68        69     9        0.000000       -1.507204         1    ;  uncertainty k = 0.157500
        58        55        68        69     9      180.000000        3.858051         2    ;  uncertainty k = 0.601707
        58        55        68        69     9        0.000000        0.776760         3    ;  uncertainty k = 0.208869
        58        55        68        69     9      180.000000        0.512818         4    ;  uncertainty k = 0.233246
        58        55        68        70     9        0.000000        2.001075         1    ;  uncertainty k = 0.909310
        58        55        68        70     9      180.000000        5.914329         2    ;  uncertainty k = 0.290750
        58        55        68        70     9        0.000000        0.150534         3    ;  uncertainty k = 0.260070
        58        55        68        70     9      180.000000        0.337400         4    ;  uncertainty k = 0.081149
        58        59        60        61     9        0.000000       -0.051172         1    ;  uncertainty k = 0.217220
        58        59        60        61     9      180.000000       12.388628         2    ;  uncertainty k = 0.355302
        58        59        60        61     9        0.000000       -1.393727         3    ;  uncertainty k = 0.194900
        58        59        60        61     9      180.000000        0.711705         4    ;  uncertainty k = 0.230463
        58        59        60        64     9        0.000000        0.068264         1    ;  uncertainty k = 0.292813
        58        59        60        64     9      180.000000        6.556448         2    ;  uncertainty k = 0.973047
        58        59        60        64     9        0.000000        1.285573         3    ;  uncertainty k = 0.340848
        58        59        60        64     9      180.000000        1.169242         4    ;  uncertainty k = 0.322429
        58        63        62        61     9        0.000000        0.088562         1    ;  uncertainty k = 0.266370
        58        63        62        61     9      180.000000       11.758863         2    ;  uncertainty k = 0.413363
        58        63        62        61     9        0.000000        0.241731         3    ;  uncertainty k = 0.501813
        58        63        62        61     9      180.000000        1.105043         4    ;  uncertainty k = 0.403921
        58        63        62        66     9        0.000000       -0.124761         1    ;  uncertainty k = 0.290899
        58        63        62        66     9      180.000000       12.568182         2    ;  uncertainty k = 0.509324
        58        63        62        66     9        0.000000        1.644330         3    ;  uncertainty k = 0.288771
        58        63        62        66     9      180.000000        1.479956         4    ;  uncertainty k = 0.343261
        59        58        55        68     9        0.000000        0.944677         1    ;  uncertainty k = 1.969590
        59        58        55        68     9      180.000000       10.102375         2    ;  uncertainty k = 0.507729
        59        58        55        68     9        0.000000        1.321500         3    ;  uncertainty k = 0.447145
        59        58        55        68     9      180.000000        0.530584         4    ;  uncertainty k = 0.341765
        59        58        63        62     9        0.000000        0.020108         1    ;  uncertainty k = 0.428221
        59        58        63        62     9      180.000000       14.036347         2    ;  uncertainty k = 0.158699
        59        58        63        62     9        0.000000       -1.738057         3    ;  uncertainty k = 0.202306
        59        58        63        62     9      180.000000        0.705102         4    ;  uncertainty k = 0.348323
        59        58        63        67     9        0.000000        0.212408         1    ;  uncertainty k = 0.270426
        59        58        63        67     9      180.000000        7.230428         2    ;  uncertainty k = 0.941344
        59        58        63        67     9        0.000000        1.421842         3    ;  uncertainty k = 0.357645
        59        58        63        67     9      180.000000        1.393499         4    ;  uncertainty k = 0.392258
        59        60        61        62     9        0.000000        0.015090         1    ;  uncertainty k = 0.130075
        59        60        61        62     9      180.000000       16.704321         2    ;  uncertainty k = 0.225820
        59        60        61        62     9        0.000000       -0.416402         3    ;  uncertainty k = 0.451472
        59        60        61        62     9      180.000000        0.710936         4    ;  uncertainty k = 0.351525
        59        60        61        65     9        0.000000        0.082510         1    ;  uncertainty k = 0.332569
        59        60        61        65     9      180.000000       10.822042         2    ;  uncertainty k = 0.374123
        59        60        61        65     9        0.000000        1.509366         3    ;  uncertainty k = 0.298397
        59        60        61        65     9      180.000000        1.646978         4    ;  uncertainty k = 0.311580
        60        59        58        63     9        0.000000       -0.585785         1    ;  uncertainty k = 0.666598
        60        59        58        63     9      180.000000        7.941844         2    ;  uncertainty k = 0.541093
        60        59        58        63     9        0.000000        0.132572         3    ;  uncertainty k = 0.208716
        60        59        58        63     9      180.000000        0.991070         4    ;  uncertainty k = 0.393823
        60        61        62        63     9        0.000000       -0.127287         1    ;  uncertainty k = 0.239683
        60        61        62        63     9      180.000000        8.799186         2    ;  uncertainty k = 0.505248
        60        61        62        63     9        0.000000       -0.126951         3    ;  uncertainty k = 0.524752
        60        61        62        63     9      180.000000        1.129140         4    ;  uncertainty k = 0.358218
        60        61        62        66     9        0.000000        0.188303         1    ;  uncertainty k = 0.124106
        60        61        62        66     9      180.000000        8.579066         2    ;  uncertainty k = 0.696341
        60        61        62        66     9        0.000000        1.480744         3    ;  uncertainty k = 0.437048
        60        61        62        66     9      180.000000        1.607230         4    ;  uncertainty k = 0.213308
        61        62        63        67     9        0.000000        0.019384         1    ;  uncertainty k = 0.259216
        61        62        63        67     9      180.000000        7.059286         2    ;  uncertainty k = 0.530862
        61        62        63        67     9        0.000000        1.514571         3    ;  uncertainty k = 0.328983
        61        62        63        67     9      180.000000        1.643611         4    ;  uncertainty k = 0.189579
        62        61        60        64     9        0.000000        0.099463         1    ;  uncertainty k = 0.223275
        62        61        60        64     9      180.000000        8.867009         2    ;  uncertainty k = 0.544524
        62        61        60        64     9        0.000000        1.637363         3    ;  uncertainty k = 0.280198
        62        61        60        64     9      180.000000        1.932118         4    ;  uncertainty k = 0.355469
        63        58        55        68     9        0.000000       -0.380462         1    ;  uncertainty k = 1.126902
        63        58        55        68     9      180.000000        5.884782         2    ;  uncertainty k = 0.591349
        63        58        55        68     9        0.000000        1.450310         3    ;  uncertainty k = 0.651078
        63        58        55        68     9      180.000000        0.153030         4    ;  uncertainty k = 0.298989
        63        62        61        65     9        0.000000       -0.111816         1    ;  uncertainty k = 0.151127
        63        62        61        65     9      180.000000        5.504304         2    ;  uncertainty k = 0.529721
        63        62        61        65     9        0.000000        1.304049         3    ;  uncertainty k = 0.300160
        63        62        61        65     9      180.000000        1.406125         4    ;  uncertainty k = 0.209721
        64        60        61        65     9        0.000000       -0.025049         1    ;  uncertainty k = 0.365859
        64        60        61        65     9      180.000000        7.677374         2    ;  uncertainty k = 0.354214
        64        60        61        65     9        0.000000       -0.236355         3    ;  uncertainty k = 0.205751
        64        60        61        65     9      180.000000        0.133541         4    ;  uncertainty k = 0.143099
        65        61        62        66     9        0.000000        0.032878         1    ;  uncertainty k = 0.161114
        65        61        62        66     9      180.000000        6.967161         2    ;  uncertainty k = 0.303392
        65        61        62        66     9        0.000000        0.675983         3    ;  uncertainty k = 0.331673
        65        61        62        66     9      180.000000        0.921001         4    ;  uncertainty k = 0.216514
        66        62        63        67     9        0.000000       -0.266735         1    ;  uncertainty k = 0.366145
        66        62        63        67     9      180.000000        8.307866         2    ;  uncertainty k = 0.430126
        66        62        63        67     9        0.000000        0.792492         3    ;  uncertainty k = 0.220844
        66        62        63        67     9      180.000000        1.079702         4    ;  uncertainty k = 0.298521
        68        70        71        76     9        0.000000        0.233172         1    ;  uncertainty k = 0.213349
        68        70        71        76     9      180.000000       -0.322727         2    ;  uncertainty k = 0.070282
        68        70        71        76     9        0.000000        0.294191         3    ;  uncertainty k = 0.068012
        68        70        71        76     9      180.000000        0.263736         4    ;  uncertainty k = 0.038082
        68        70        71        77     9        0.000000        0.233172         1    ;  uncertainty k = 0.213349
        68        70        71        77     9      180.000000       -0.322727         2    ;  uncertainty k = 0.070282
        68        70        71        77     9        0.000000        0.294191         3    ;  uncertainty k = 0.068012
        68        70        71        77     9      180.000000        0.263736         4    ;  uncertainty k = 0.038082
        68        70        71        78     9        0.000000        0.233172         1    ;  uncertainty k = 0.213349
        68        70        71        78     9      180.000000       -0.322727         2    ;  uncertainty k = 0.070282
        68        70        71        78     9        0.000000        0.294191         3    ;  uncertainty k = 0.068012
        68        70        71        78     9      180.000000        0.263736         4    ;  uncertainty k = 0.038082
        68        70        72        73     9        0.000000        0.233172         1    ;  uncertainty k = 0.213349
        68        70        72        73     9      180.000000       -0.322727         2    ;  uncertainty k = 0.070282
        68        70        72        73     9        0.000000        0.294191         3    ;  uncertainty k = 0.068012
        68        70        72        73     9      180.000000        0.263736         4    ;  uncertainty k = 0.038082
        68        70        72        74     9        0.000000        0.233172         1    ;  uncertainty k = 0.213349
        68        70        72        74     9      180.000000       -0.322727         2    ;  uncertainty k = 0.070282
        68        70        72        74     9        0.000000        0.294191         3    ;  uncertainty k = 0.068012
        68        70        72        74     9      180.000000        0.263736         4    ;  uncertainty k = 0.038082
        68        70        72        75     9        0.000000        0.233172         1    ;  uncertainty k = 0.213349
        68        70        72        75     9      180.000000       -0.322727         2    ;  uncertainty k = 0.070282
        68        70        72        75     9        0.000000        0.294191         3    ;  uncertainty k = 0.068012
        68        70        72        75     9      180.000000        0.263736         4    ;  uncertainty k = 0.038082
        69        68        70        71     9        0.000000        5.709541         1    ;  uncertainty k = 1.113523
        69        68        70        71     9      180.000000       14.269480         2    ;  uncertainty k = 0.180686
        69        68        70        71     9        0.000000        0.491018         3    ;  uncertainty k = 0.531732
        69        68        70        71     9      180.000000       -0.385387         4    ;  uncertainty k = 0.302253
        69        68        70        72     9        0.000000        5.709541         1    ;  uncertainty k = 1.113523
        69        68        70        72     9      180.000000       14.269480         2    ;  uncertainty k = 0.180686
        69        68        70        72     9        0.000000        0.491018         3    ;  uncertainty k = 0.531732
        69        68        70        72     9      180.000000       -0.385387         4    ;  uncertainty k = 0.302253
        71        70        72        73     9        0.000000       -0.689839         1    ;  uncertainty k = 0.362500
        71        70        72        73     9      180.000000       -1.184555         2    ;  uncertainty k = 0.220190
        71        70        72        73     9        0.000000        1.365920         3    ;  uncertainty k = 0.055788
        71        70        72        73     9      180.000000        0.153030         4    ;  uncertainty k = 0.044491
        71        70        72        74     9        0.000000       -0.689839         1    ;  uncertainty k = 0.362500
        71        70        72        74     9      180.000000       -1.184555         2    ;  uncertainty k = 0.220190
        71        70        72        74     9        0.000000        1.365920         3    ;  uncertainty k = 0.055788
        71        70        72        74     9      180.000000        0.153030         4    ;  uncertainty k = 0.044491
        71        70        72        75     9        0.000000       -0.689839         1    ;  uncertainty k = 0.362500
        71        70        72        75     9      180.000000       -1.184555         2    ;  uncertainty k = 0.220190
        71        70        72        75     9        0.000000        1.365920         3    ;  uncertainty k = 0.055788
        71        70        72        75     9      180.000000        0.153030         4    ;  uncertainty k = 0.044491
        72        70        71        76     9        0.000000       -0.689839         1    ;  uncertainty k = 0.362500
        72        70        71        76     9      180.000000       -1.184555         2    ;  uncertainty k = 0.220190
        72        70        71        76     9        0.000000        1.365920         3    ;  uncertainty k = 0.055788
        72        70        71        76     9      180.000000        0.153030         4    ;  uncertainty k = 0.044491
        72        70        71        77     9        0.000000       -0.689839         1    ;  uncertainty k = 0.362500
        72        70        71        77     9      180.000000       -1.184555         2    ;  uncertainty k = 0.220190
        72        70        71        77     9        0.000000        1.365920         3    ;  uncertainty k = 0.055788
        72        70        71        77     9      180.000000        0.153030         4    ;  uncertainty k = 0.044491
        72        70        71        78     9        0.000000       -0.689839         1    ;  uncertainty k = 0.362500
        72        70        71        78     9      180.000000       -1.184555         2    ;  uncertainty k = 0.220190
        72        70        71        78     9        0.000000        1.365920         3    ;  uncertainty k = 0.055788
        72        70        71        78     9      180.000000        0.153030         4    ;  uncertainty k = 0.044491

[ dihedrals ] ; impropers
;       ai        aj        ak        al funct           phase               k        pn
         1         2         4        54     4      180.000000       51.022926         2    ;  uncertainty k = 0.030338
         1         4        54         2     4      180.000000       51.022926         2    ;  uncertainty k = 0.030338
         1        54         2         4     4      180.000000       51.022926         2    ;  uncertainty k = 0.030338
        11        10        12        13     4      180.000000       49.476644         2    ;  uncertainty k = 0.014914
        11        12        13        10     4      180.000000       49.476644         2    ;  uncertainty k = 0.014914
        11        13        10        12     4      180.000000       49.476644         2    ;  uncertainty k = 0.014914
        12        11        14        15     4      180.000000        4.762177         2    ;  uncertainty k = 0.485670
        12        14        15        11     4      180.000000        4.762177         2    ;  uncertainty k = 0.485670
        12        15        11        14     4      180.000000        4.762177         2    ;  uncertainty k = 0.485670
        19        14        20        24     4      180.000000       10.302524         2    ;  uncertainty k = 0.235813
        19        20        24        14     4      180.000000       10.302524         2    ;  uncertainty k = 0.235813
        19        24        14        20     4      180.000000       10.302524         2    ;  uncertainty k = 0.235813
        20        15        19        21     4      180.000000        2.894551         2    ;  uncertainty k = 0.672593
        20        19        21        15     4      180.000000        2.894551         2    ;  uncertainty k = 0.672593
        20        21        15        19     4      180.000000        2.894551         2    ;  uncertainty k = 0.672593
        35         7        36        37     4      180.000000       51.316640         2    ;  uncertainty k = 0.028239
        35        36        37         7     4      180.000000       51.316640         2    ;  uncertainty k = 0.028239
        35        37         7        36     4      180.000000       51.316640         2    ;  uncertainty k = 0.028239
        54         1        55        56     4      180.000000        2.394020         2    ;  uncertainty k = 0.947399
        54        55        56         1     4      180.000000        2.394020         2    ;  uncertainty k = 0.947399
        54        56         1        55     4      180.000000        2.394020         2    ;  uncertainty k = 0.947399
        55        54        58        68     4      180.000000        0.564237         2    ;  uncertainty k = 1.006556
        55        58        68        54     4      180.000000        0.564237         2    ;  uncertainty k = 1.006556
        55        68        54        58     4      180.000000        0.564237         2    ;  uncertainty k = 1.006556
        59        56        58        60     4      180.000000        1.724728         2    ;  uncertainty k = 1.108469
        59        58        60        56     4      180.000000        1.724728         2    ;  uncertainty k = 1.108469
        59        60        56        58     4      180.000000        1.724728         2    ;  uncertainty k = 1.108469
        60        59        61        64     4      180.000000        2.986317         2    ;  uncertainty k = 0.176478
        60        61        64        59     4      180.000000        2.986317         2    ;  uncertainty k = 0.176478
        60        64        59        61     4      180.000000        2.986317         2    ;  uncertainty k = 0.176478
        61        60        62        65     4      180.000000        3.265662         2    ;  uncertainty k = 0.133635
        61        62        65        60     4      180.000000        3.265662         2    ;  uncertainty k = 0.133635
        61        65        60        62     4      180.000000        3.265662         2    ;  uncertainty k = 0.133635
        62        61        63        66     4      180.000000       11.425025         2    ;  uncertainty k = 0.077406
        62        63        66        61     4      180.000000       11.425025         2    ;  uncertainty k = 0.077406
        62        66        61        63     4      180.000000       11.425025         2    ;  uncertainty k = 0.077406
        63        58        62        67     4      180.000000        4.037565         2    ;  uncertainty k = 0.126061
        63        62        67        58     4      180.000000        4.037565         2    ;  uncertainty k = 0.126061
        63        67        58        62     4      180.000000        4.037565         2    ;  uncertainty k = 0.126061
        68        55        69        70     4      180.000000       51.730884         2    ;  uncertainty k = 0.076697
        68        69        70        55     4      180.000000       51.730884         2    ;  uncertainty k = 0.076697
        68        70        55        69     4      180.000000       51.730884         2    ;  uncertainty k = 0.076697

[ pairs ]
;       ai        aj funct
         1         5     1
         1         9     1
         1        17     1
         1        57     1
         1        58     1
         1        59     1
         1        68     1
         2         6     1
         2         8     1
         2        10     1
         2        45     1
         2        46     1
         2        53     1
         2        55     1
         2        56     1
         3         4     1
         3         7     1
         3        11     1
         3        18     1
         3        40     1
         3        41     1
         3        43     1
         3        44     1
         3        54     1
         4        16     1
         4        55     1
         4        56     1
         5         8     1
         5        12     1
         5        13     1
         5        16     1
         5        35     1
         5        42     1
         5        45     1
         5        46     1
         6         9     1
         6        11     1
         6        17     1
         6        18     1
         6        36     1
         6        37     1
         6        43     1
         6        44     1
         7        10     1
         7        38     1
         7        39     1
         7        45     1
         7        46     1
         7        53     1
         8        17     1
         8        36     1
         8        37     1
         8        40     1
         8        41     1
         9        10     1
         9        16     1
         9        35     1
         9        42     1
         9        53     1
        10        14     1
        10        15     1
        10        17     1
        10        40     1
        10        41     1
        11        19     1
        11        20     1
        11        53     1
        12        18     1
        12        21     1
        12        24     1
        13        14     1
        13        15     1
        13        18     1
        14        21     1
        14        23     1
        14        30     1
        14        31     1
        15        22     1
        15        24     1
        15        26     1
        15        27     1
        16        17     1
        16        54     1
        17        45     1
        17        46     1
        17        53     1
        18        53     1
        19        22     1
        19        26     1
        19        27     1
        19        28     1
        19        29     1
        20        23     1
        20        25     1
        20        30     1
        20        31     1
        21        24     1
        21        28     1
        21        29     1
        21        32     1
        21        33     1
        21        34     1
        22        30     1
        22        31     1
        23        26     1
        23        27     1
        23        32     1
        23        33     1
        23        34     1
        24        25     1
        25        26     1
        25        27     1
        25        28     1
        25        29     1
        28        30     1
        28        31     1
        29        30     1
        29        31     1
        35        40     1
        35        41     1
        35        43     1
        35        44     1
        35        47     1
        35        48     1
        35        49     1
        35        50     1
        35        51     1
        35        52     1
        36        38     1
        36        39     1
        36        42     1
        37        42     1
        38        50     1
        38        51     1
        38        52     1
        39        47     1
        39        48     1
        39        49     1
        40        42     1
        40        53     1
        41        42     1
        41        53     1
        42        43     1
        42        44     1
        43        45     1
        43        46     1
        44        45     1
        44        46     1
        54        60     1
        54        63     1
        54        69     1
        54        70     1
        55        57     1
        55        60     1
        55        62     1
        55        67     1
        55        71     1
        55        72     1
        56        61     1
        56        63     1
        56        64     1
        56        68     1
        57        58     1
        57        60     1
        58        61     1
        58        64     1
        58        66     1
        58        69     1
        58        70     1
        59        62     1
        59        65     1
        59        67     1
        59        68     1
        60        63     1
        60        66     1
        61        67     1
        62        64     1
        63        65     1
        63        68     1
        64        65     1
        65        66     1
        66        67     1
        68        73     1
        68        74     1
        68        75     1
        68        76     1
        68        77     1
        68        78     1
        69        71     1
        69        72     1
        71        73     1
        71        74     1
        71        75     1
        72        76     1
        72        77     1
        72        78     1
