; ITP file created by ByteFF-ML, 2026-02-21 08:21:58.547533

[ atomtypes ]
;name           bonded.type        at.num        mass        charge   ptype           sigma         epsilon
 c0bf                                   6      0.0000       0.00000       A     3.39825e-01     4.50572e-01
 c1bf                                   6      0.0000       0.00000       A     3.39678e-01     4.51033e-01
 c2bf                                   6      0.0000       0.00000       A     3.39678e-01     4.51033e-01
 c3bf                                   6      0.0000       0.00000       A     3.39825e-01     4.50572e-01
 o4bf                                   8      0.0000       0.00000       A     3.15644e-01     3.03351e-01
 c5bf                                   6      0.0000       0.00000       A     3.31585e-01     4.13159e-01
 c6bf                                   6      0.0000       0.00000       A     3.31542e-01     4.14110e-01
 c7bf                                   6      0.0000       0.00000       A     3.39714e-01     4.52178e-01
 c8bf                                   6      0.0000       0.00000       A     3.31349e-01     4.12523e-01
 c9bf                                   6      0.0000       0.00000       A     3.31576e-01     4.14585e-01
 c10bf                                  6      0.0000       0.00000       A     3.31340e-01     4.13811e-01
 c11bf                                  6      0.0000       0.00000       A     3.31322e-01     4.14054e-01
 c12bf                                  6      0.0000       0.00000       A     3.31126e-01     4.11026e-01
 c13bf                                  6      0.0000       0.00000       A     3.39778e-01     4.51380e-01
 n14bf                                  7      0.0000       0.00000       A     3.38488e-01     3.93278e-01
 o15bf                                  8      0.0000       0.00000       A     3.04727e-01     6.10814e-01
 n16bf                                  7      0.0000       0.00000       A     3.18080e-01     6.85499e-01
 n17bf                                  7      0.0000       0.00000       A     3.38471e-01     3.92089e-01
 n18bf                                  7      0.0000       0.00000       A     3.27859e-01     6.48853e-01
 h19bf                                  1      0.0000       0.00000       A     2.62556e-01     6.70285e-02
 h20bf                                  1      0.0000       0.00000       A     2.53572e-01     6.74323e-02
 h21bf                                  1      0.0000       0.00000       A     2.59805e-01     8.76130e-02
 h22bf                                  1      0.0000       0.00000       A     2.59805e-01     8.76130e-02
 h23bf                                  1      0.0000       0.00000       A     2.42083e-01     8.71949e-02
 h24bf                                  1      0.0000       0.00000       A     2.42083e-01     8.71949e-02
 h25bf                                  1      0.0000       0.00000       A     2.42083e-01     8.71949e-02
 h26bf                                  1      0.0000       0.00000       A     2.42083e-01     8.71949e-02
 h27bf                                  1      0.0000       0.00000       A     2.59805e-01     8.76130e-02
 h28bf                                  1      0.0000       0.00000       A     2.59805e-01     8.76130e-02
 h29bf                                  1      0.0000       0.00000       A     2.42326e-01     8.58414e-02
 h30bf                                  1      0.0000       0.00000       A     2.42068e-01     8.71789e-02
 h31bf                                  1      0.0000       0.00000       A     2.42068e-01     8.71789e-02
 h32bf                                  1      0.0000       0.00000       A     2.42068e-01     8.71789e-02
 h33bf                                  1      0.0000       0.00000       A     1.10329e-01     4.16526e-02
 c34bf                                  6      0.0000       0.00000       A     3.31487e-01     4.13015e-01
 c35bf                                  6      0.0000       0.00000       A     3.31451e-01     4.12819e-01
 c36bf                                  6      0.0000       0.00000       A     3.31474e-01     4.11957e-01
 c37bf                                  6      0.0000       0.00000       A     3.31601e-01     4.11642e-01
 c38bf                                  6      0.0000       0.00000       A     3.31406e-01     4.12562e-01
 c39bf                                  6      0.0000       0.00000       A     3.31494e-01     4.13119e-01
 h40bf                                  1      0.0000       0.00000       A     2.62466e-01     6.72440e-02
 h41bf                                  1      0.0000       0.00000       A     2.62447e-01     6.72743e-02
 cl42bf                                17      0.0000       0.00000       A     3.46874e-01     1.10920e+00
 h43bf                                  1      0.0000       0.00000       A     2.62467e-01     6.72951e-02
 h44bf                                  1      0.0000       0.00000       A     2.62467e-01     6.73573e-02

[ moleculetype ]
;name             nrexcl
 2c                    3

[ atoms ]
;       nr            type      resi   res      atom      cgnr      charge          mass ; qtot
         1            c0bf         1   UNL        c0         1    -0.12568       12.0110 ; qtot   -0.126
         2            c1bf         1   UNL        c1         2     0.15457       12.0110 ; qtot    0.029
         3            c2bf         1   UNL        c2         3     0.15457       12.0110 ; qtot    0.183
         4            c3bf         1   UNL        c3         4    -0.12568       12.0110 ; qtot    0.058
         5            o4bf         1   UNL        o4         5    -0.46215       15.9990 ; qtot   -0.404
         6            c5bf         1   UNL        c5         6     0.57597       12.0110 ; qtot    0.172
         7            c6bf         1   UNL        c6         7     0.41197       12.0110 ; qtot    0.584
         8            c7bf         1   UNL        c7         8     0.24222       12.0110 ; qtot    0.826
         9            c8bf         1   UNL        c8         9    -0.30377       12.0110 ; qtot    0.522
        10            c9bf         1   UNL        c9        10    -0.03702       12.0110 ; qtot    0.485
        11           c10bf         1   UNL       c10        11     0.31541       12.0110 ; qtot    0.800
        12           c11bf         1   UNL       c11        12     0.20712       12.0110 ; qtot    1.008
        13           c12bf         1   UNL       c12        13    -0.13372       12.0110 ; qtot    0.874
        14           c13bf         1   UNL       c13        14     0.07999       12.0110 ; qtot    0.954
        15           n14bf         1   UNL       n14        15    -0.24813       14.0070 ; qtot    0.706
        16           o15bf         1   UNL       o15        16    -0.53679       15.9990 ; qtot    0.169
        17           n16bf         1   UNL       n16        17    -0.36997       14.0070 ; qtot   -0.201
        18           n17bf         1   UNL       n17        18    -0.30522       14.0070 ; qtot   -0.506
        19           n18bf         1   UNL       n18        19    -0.90583       14.0070 ; qtot   -1.412
        20           h19bf         1   UNL       h19        20     0.20510        1.0080 ; qtot   -1.207
        21           h20bf         1   UNL       h20        21     0.02957        1.0080 ; qtot   -1.177
        22           h21bf         1   UNL       h21        22     0.05821        1.0080 ; qtot   -1.119
        23           h22bf         1   UNL       h22        23     0.05821        1.0080 ; qtot   -1.061
        24           h23bf         1   UNL       h23        24     0.04708        1.0080 ; qtot   -1.014
        25           h24bf         1   UNL       h24        25     0.04708        1.0080 ; qtot   -0.967
        26           h25bf         1   UNL       h25        26     0.04708        1.0080 ; qtot   -0.920
        27           h26bf         1   UNL       h26        27     0.04708        1.0080 ; qtot   -0.873
        28           h27bf         1   UNL       h27        28     0.05821        1.0080 ; qtot   -0.815
        29           h28bf         1   UNL       h28        29     0.05821        1.0080 ; qtot   -0.756
        30           h29bf         1   UNL       h29        30     0.06788        1.0080 ; qtot   -0.688
        31           h30bf         1   UNL       h30        31     0.06208        1.0080 ; qtot   -0.626
        32           h31bf         1   UNL       h31        32     0.06208        1.0080 ; qtot   -0.564
        33           h32bf         1   UNL       h32        33     0.06208        1.0080 ; qtot   -0.502
        34           h33bf         1   UNL       h33        34     0.49590        1.0080 ; qtot   -0.006
        35           c34bf         1   UNL       c34        35    -0.09696       12.0110 ; qtot   -0.103
        36           c35bf         1   UNL       c35        36    -0.11041       12.0110 ; qtot   -0.214
        37           c36bf         1   UNL       c36        37     0.14375       12.0110 ; qtot   -0.070
        38           c37bf         1   UNL       c37        38    -0.03492       12.0110 ; qtot   -0.105
        39           c38bf         1   UNL       c38        39    -0.08236       12.0110 ; qtot   -0.187
        40           c39bf         1   UNL       c39        40    -0.11314       12.0110 ; qtot   -0.300
        41           h40bf         1   UNL       h40        41     0.12342        1.0080 ; qtot   -0.177
        42           h41bf         1   UNL       h41        42     0.13137        1.0080 ; qtot   -0.046
        43          cl42bf         1   UNL      cl42        43    -0.20192       35.4530 ; qtot   -0.247
        44           h43bf         1   UNL       h43        44     0.12618        1.0080 ; qtot   -0.121
        45           h44bf         1   UNL       h44        45     0.12128        1.0080 ; qtot    0.000

[ bonds ]
;       ai        aj funct               r               k
         1         2     1        0.153597   178293.892139
         1         8     1        0.154056   172093.226611
         1        22     1        0.109441   299169.023926
         1        23     1        0.109441   299169.023926
         2         5     1        0.143005   196789.616040
         2        24     1        0.109640   291280.534229
         2        25     1        0.109640   291280.534229
         3         4     1        0.153597   178293.892139
         3         5     1        0.143005   196789.616040
         3        26     1        0.109640   291280.534229
         3        27     1        0.109640   291280.534229
         4         8     1        0.154056   172093.226611
         4        28     1        0.109441   299169.023926
         4        29     1        0.109441   299169.023926
         6        13     1        0.147563   175990.968384
         6        16     1        0.123279   581918.759082
         6        17     1        0.141386   177822.655859
         7        15     1        0.136147   237289.543457
         7        18     1        0.134743   274242.404687
         7        19     1        0.135795   337345.138232
         8        19     1        0.146342   195657.096313
         8        30     1        0.109339   302297.626270
         9        10     1        0.142737   272481.289014
         9        11     1        0.141858   251978.718604
         9        12     1        0.140335   290746.323437
        10        13     1        0.136164   407899.421533
        10        20     1        0.108622   318694.748828
        11        17     1        0.137449   274321.110059
        11        18     1        0.133494   326257.691455
        12        15     1        0.132275   380706.766895
        12        21     1        0.108983   309866.621191
        13        38     1        0.148484   212372.245264
        14        17     1        0.147091   183172.744116
        14        31     1        0.108961   310531.760742
        14        32     1        0.108961   310531.760742
        14        33     1        0.108961   310531.760742
        19        34     1        0.101197   417437.097754
        35        36     1        0.139635   311024.882324
        35        40     1        0.139864   306870.913965
        35        41     1        0.108568   322678.844336
        36        37     1        0.139747   302517.705078
        36        42     1        0.108457   324191.918066
        37        38     1        0.140522   263226.768262
        37        43     1        0.175716   145184.531860
        38        39     1        0.140617   281793.779004
        39        40     1        0.139437   321227.927930
        39        44     1        0.108496   322103.620947
        40        45     1        0.108596   321013.850342

[ angles ]
;       ai        aj        ak funct           theta             cth
         1         2         5     1      112.057350      650.229837
         1         2        24     1      110.599220      486.660342
         1         2        25     1      110.599220      486.660342
         1         8         4     1      109.670731      539.148838
         1         8        19     1      111.413162      594.575027
         1         8        30     1      108.438194      470.541861
         2         1         8     1      110.143417      679.501302
         2         1        22     1      109.782654      502.446362
         2         1        23     1      109.782654      502.446362
         2         5         3     1      112.347824      593.219262
         3         4         8     1      110.143417      679.501302
         3         4        28     1      109.782654      502.446362
         3         4        29     1      109.782654      502.446362
         4         3         5     1      112.057350      650.229837
         4         3        26     1      110.599220      486.660342
         4         3        27     1      110.599220      486.660342
         4         8        19     1      111.413162      594.575027
         4         8        30     1      108.438194      470.541861
         5         2        24     1      107.737404      465.042190
         5         2        25     1      107.737404      465.042190
         5         3        26     1      107.737404      465.042190
         5         3        27     1      107.737404      465.042190
         6        13        10     1      120.023315      770.763078
         6        13        38     1      117.636086      535.788091
         6        17        11     1      122.786942      560.403502
         6        17        14     1      117.518066      599.741504
         7        15        12     1      115.920921      936.179002
         7        18        11     1      116.609268      755.863899
         7        19         8     1      124.733902      450.652411
         7        19        34     1      114.010254      481.843565
         8         1        22     1      109.667801      496.043027
         8         1        23     1      109.667801      496.043027
         8         4        28     1      109.667801      496.043027
         8         4        29     1      109.667801      496.043027
         8        19        34     1      118.351364      413.441906
         9        10        13     1      121.362427      549.458361
         9        10        20     1      118.954750      426.919052
         9        11        17     1      119.206711      622.797874
         9        11        18     1      122.255173      732.013834
         9        12        15     1      123.570541      733.335444
         9        12        21     1      119.703773      406.775859
        10         9        11     1      119.116234      699.608520
        10         9        12     1      125.312782      437.759874
        10        13        38     1      122.174881      452.443106
        11         9        12     1      114.984047      843.832090
        11        17        14     1      119.135635      530.484161
        13         6        16     1      123.058067      433.316736
        13         6        17     1      116.629723      714.377843
        13        10        20     1      119.881554      424.893129
        13        38        37     1      123.297401      433.912326
        13        38        39     1      119.415749      495.339799
        15         7        18     1      126.160011      634.095683
        15         7        19     1      116.854393      599.021804
        15        12        21     1      116.386185      436.884079
        16         6        17     1      119.817276      622.831839
        17        11        18     1      118.323746      542.661340
        17        14        31     1      108.993607      484.193968
        17        14        32     1      108.993607      484.193968
        17        14        33     1      108.993607      484.193968
        18         7        19     1      116.440346      534.813978
        19         8        30     1      106.415306      519.306983
        22         1        23     1      107.383133      356.326501
        24         2        25     1      107.873230      341.256574
        26         3        27     1      107.873230      341.256574
        28         4        29     1      107.383133      356.326533
        31        14        32     1      109.906494      341.341772
        31        14        33     1      109.906494      341.341772
        32        14        33     1      109.906494      341.341772
        35        36        37     1      119.847824      646.636510
        35        36        42     1      120.819725      430.705120
        35        40        39     1      119.795883      720.969609
        35        40        45     1      120.340981      442.271898
        36        35        40     1      119.807938      669.498544
        36        35        41     1      119.639816      433.577311
        36        37        38     1      121.469383      637.901287
        36        37        43     1      117.318726      392.076603
        37        36        42     1      119.357140      407.407998
        37        38        39     1      117.510376      539.743342
        38        37        43     1      120.938232      330.295951
        38        39        40     1      121.591370      683.994301
        38        39        44     1      118.352516      425.325473
        39        40        45     1      119.926735      438.267041
        40        35        41     1      120.570297      426.544582
        40        39        44     1      120.153381      422.412008

[ dihedrals ] ; propers for gromacs 4.5 or higher, use funct 9
;       ai        aj        ak        al funct           phase               k        pn
         1         2         5         3     9        0.000000        0.656407         1
         1         2         5         3     9      180.000000       -0.958141         2
         1         2         5         3     9        0.000000        0.587773         3
         1         2         5         3     9      180.000000        0.053351         4
         1         8         4         3     9        0.000000        2.989875         1
         1         8         4         3     9      180.000000       -3.284302         2
         1         8         4         3     9        0.000000        0.008029         3
         1         8         4         3     9      180.000000        0.128316         4
         1         8         4        28     9        0.000000       -0.034793         1
         1         8         4        28     9      180.000000        0.064745         2
         1         8         4        28     9        0.000000        0.298913         3
         1         8         4        28     9      180.000000        0.014470         4
         1         8         4        29     9        0.000000       -0.034793         1
         1         8         4        29     9      180.000000        0.064745         2
         1         8         4        29     9        0.000000        0.298913         3
         1         8         4        29     9      180.000000        0.014470         4
         1         8        19         7     9        0.000000       -0.203113         1
         1         8        19         7     9      180.000000       -0.228725         2
         1         8        19         7     9        0.000000        0.538014         3
         1         8        19         7     9      180.000000        0.024242         4
         1         8        19        34     9        0.000000       -0.211311         1
         1         8        19        34     9      180.000000        0.210202         2
         1         8        19        34     9        0.000000        0.038851         3
         1         8        19        34     9      180.000000       -0.020037         4
         2         1         8         4     9        0.000000        2.989875         1
         2         1         8         4     9      180.000000       -3.284302         2
         2         1         8         4     9        0.000000        0.008029         3
         2         1         8         4     9      180.000000        0.128316         4
         2         1         8        19     9        0.000000       -1.913323         1
         2         1         8        19     9      180.000000       -1.584994         2
         2         1         8        19     9        0.000000        0.106704         3
         2         1         8        19     9      180.000000        0.296263         4
         2         1         8        30     9        0.000000       -0.000719         1
         2         1         8        30     9      180.000000       -0.002826         2
         2         1         8        30     9        0.000000        0.168043         3
         2         1         8        30     9      180.000000        0.040671         4
         2         5         3         4     9        0.000000        0.656407         1
         2         5         3         4     9      180.000000       -0.958141         2
         2         5         3         4     9        0.000000        0.587773         3
         2         5         3         4     9      180.000000        0.053351         4
         2         5         3        26     9        0.000000       -0.046698         1
         2         5         3        26     9      180.000000        0.044371         2
         2         5         3        26     9        0.000000        0.473257         3
         2         5         3        26     9      180.000000       -0.000534         4
         2         5         3        27     9        0.000000       -0.046698         1
         2         5         3        27     9      180.000000        0.044371         2
         2         5         3        27     9        0.000000        0.473257         3
         2         5         3        27     9      180.000000       -0.000534         4
         3         4         8        19     9        0.000000       -1.913323         1
         3         4         8        19     9      180.000000       -1.584994         2
         3         4         8        19     9        0.000000        0.106704         3
         3         4         8        19     9      180.000000        0.296263         4
         3         4         8        30     9        0.000000       -0.000719         1
         3         4         8        30     9      180.000000       -0.002826         2
         3         4         8        30     9        0.000000        0.168043         3
         3         4         8        30     9      180.000000        0.040671         4
         3         5         2        24     9        0.000000       -0.046698         1
         3         5         2        24     9      180.000000        0.044371         2
         3         5         2        24     9        0.000000        0.473257         3
         3         5         2        24     9      180.000000       -0.000534         4
         3         5         2        25     9        0.000000       -0.046698         1
         3         5         2        25     9      180.000000        0.044371         2
         3         5         2        25     9        0.000000        0.473257         3
         3         5         2        25     9      180.000000       -0.000534         4
         4         8         1        22     9        0.000000       -0.034793         1
         4         8         1        22     9      180.000000        0.064745         2
         4         8         1        22     9        0.000000        0.298914         3
         4         8         1        22     9      180.000000        0.014469         4
         4         8         1        23     9        0.000000       -0.034793         1
         4         8         1        23     9      180.000000        0.064745         2
         4         8         1        23     9        0.000000        0.298914         3
         4         8         1        23     9      180.000000        0.014469         4
         4         8        19         7     9        0.000000       -0.203113         1
         4         8        19         7     9      180.000000       -0.228725         2
         4         8        19         7     9        0.000000        0.538014         3
         4         8        19         7     9      180.000000        0.024242         4
         4         8        19        34     9        0.000000       -0.211311         1
         4         8        19        34     9      180.000000        0.210202         2
         4         8        19        34     9        0.000000        0.038851         3
         4         8        19        34     9      180.000000       -0.020037         4
         5         2         1         8     9        0.000000        0.588019         1
         5         2         1         8     9      180.000000       -1.553809         2
         5         2         1         8     9        0.000000        0.318518         3
         5         2         1         8     9      180.000000        0.071837         4
         5         2         1        22     9        0.000000       -0.070257         1
         5         2         1        22     9      180.000000        0.057420         2
         5         2         1        22     9        0.000000        0.194875         3
         5         2         1        22     9      180.000000       -0.007724         4
         5         2         1        23     9        0.000000       -0.070257         1
         5         2         1        23     9      180.000000        0.057420         2
         5         2         1        23     9        0.000000        0.194875         3
         5         2         1        23     9      180.000000       -0.007724         4
         5         3         4         8     9        0.000000        0.588019         1
         5         3         4         8     9      180.000000       -1.553809         2
         5         3         4         8     9        0.000000        0.318518         3
         5         3         4         8     9      180.000000        0.071837         4
         5         3         4        28     9        0.000000       -0.070257         1
         5         3         4        28     9      180.000000        0.057420         2
         5         3         4        28     9        0.000000        0.194875         3
         5         3         4        28     9      180.000000       -0.007724         4
         5         3         4        29     9        0.000000       -0.070257         1
         5         3         4        29     9      180.000000        0.057420         2
         5         3         4        29     9        0.000000        0.194875         3
         5         3         4        29     9      180.000000       -0.007724         4
         6        13        10         9     9        0.000000       -0.345317         1
         6        13        10         9     9      180.000000       21.740216         2
         6        13        10         9     9        0.000000       -1.058461         3
         6        13        10         9     9      180.000000       -0.911952         4
         6        13        10        20     9        0.000000        0.080855         1
         6        13        10        20     9      180.000000       17.541534         2
         6        13        10        20     9        0.000000       -0.205796         3
         6        13        10        20     9      180.000000       -0.123741         4
         6        13        38        37     9        0.000000        0.814514         1
         6        13        38        37     9      180.000000        1.806278         2
         6        13        38        37     9        0.000000        0.857448         3
         6        13        38        37     9      180.000000        0.040214         4
         6        13        38        39     9        0.000000       -1.184428         1
         6        13        38        39     9      180.000000        4.257544         2
         6        13        38        39     9        0.000000       -1.394795         3
         6        13        38        39     9      180.000000        0.969391         4
         6        17        11         9     9        0.000000       -0.834615         1
         6        17        11         9     9      180.000000        5.937039         2
         6        17        11         9     9        0.000000       -0.573107         3
         6        17        11         9     9      180.000000        0.177037         4
         6        17        11        18     9        0.000000        0.193704         1
         6        17        11        18     9      180.000000        7.874783         2
         6        17        11        18     9        0.000000        0.390408         3
         6        17        11        18     9      180.000000       -0.248356         4
         6        17        14        31     9        0.000000       -0.008936         1
         6        17        14        31     9      180.000000        0.065378         2
         6        17        14        31     9        0.000000       -0.077169         3
         6        17        14        31     9      180.000000        0.023141         4
         6        17        14        32     9        0.000000       -0.008936         1
         6        17        14        32     9      180.000000        0.065378         2
         6        17        14        32     9        0.000000       -0.077169         3
         6        17        14        32     9      180.000000        0.023141         4
         6        17        14        33     9        0.000000       -0.008936         1
         6        17        14        33     9      180.000000        0.065378         2
         6        17        14        33     9        0.000000       -0.077169         3
         6        17        14        33     9      180.000000        0.023141         4
         7        15        12         9     9        0.000000       -0.258923         1
         7        15        12         9     9      180.000000       20.797805         2
         7        15        12         9     9        0.000000       -1.396181         3
         7        15        12         9     9      180.000000       -0.269120         4
         7        15        12        21     9        0.000000        0.367705         1
         7        15        12        21     9      180.000000       19.202498         2
         7        15        12        21     9        0.000000       -0.093466         3
         7        15        12        21     9      180.000000       -0.240021         4
         7        18        11         9     9        0.000000       -0.306459         1
         7        18        11         9     9      180.000000       12.336603         2
         7        18        11         9     9        0.000000       -0.354216         3
         7        18        11         9     9      180.000000       -0.057830         4
         7        18        11        17     9        0.000000       -0.229174         1
         7        18        11        17     9      180.000000       16.553898         2
         7        18        11        17     9        0.000000        0.595769         3
         7        18        11        17     9      180.000000       -0.480712         4
         7        19         8        30     9        0.000000       -0.159174         1
         7        19         8        30     9      180.000000        0.215923         2
         7        19         8        30     9        0.000000        0.641603         3
         7        19         8        30     9      180.000000        0.037921         4
         8         1         2        24     9        0.000000       -0.016397         1
         8         1         2        24     9      180.000000        0.056039         2
         8         1         2        24     9        0.000000        0.282909         3
         8         1         2        24     9      180.000000        0.009404         4
         8         1         2        25     9        0.000000       -0.016397         1
         8         1         2        25     9      180.000000        0.056039         2
         8         1         2        25     9        0.000000        0.282909         3
         8         1         2        25     9      180.000000        0.009404         4
         8         4         3        26     9        0.000000       -0.016397         1
         8         4         3        26     9      180.000000        0.056039         2
         8         4         3        26     9        0.000000        0.282909         3
         8         4         3        26     9      180.000000        0.009404         4
         8         4         3        27     9        0.000000       -0.016397         1
         8         4         3        27     9      180.000000        0.056039         2
         8         4         3        27     9        0.000000        0.282909         3
         8         4         3        27     9      180.000000        0.009404         4
         8        19         7        15     9        0.000000        0.387695         1
         8        19         7        15     9      180.000000        7.925193         2
         8        19         7        15     9        0.000000        0.630611         3
         8        19         7        15     9      180.000000       -0.895939         4
         8        19         7        18     9        0.000000       -0.013549         1
         8        19         7        18     9      180.000000        8.370133         2
         8        19         7        18     9        0.000000        0.320739         3
         8        19         7        18     9      180.000000       -0.721346         4
         9        10        13        38     9        0.000000       -0.009038         1
         9        10        13        38     9      180.000000       23.014135         2
         9        10        13        38     9        0.000000       -0.099238         3
         9        10        13        38     9      180.000000       -1.228525         4
         9        11        17        14     9        0.000000       -0.197347         1
         9        11        17        14     9      180.000000        8.723897         2
         9        11        17        14     9        0.000000       -0.076314         3
         9        11        17        14     9      180.000000        0.167331         4
        10         9        11        17     9        0.000000       -0.031500         1
        10         9        11        17     9      180.000000       12.956725         2
        10         9        11        17     9        0.000000       -0.196934         3
        10         9        11        17     9      180.000000       -0.429167         4
        10         9        11        18     9        0.000000        0.478583         1
        10         9        11        18     9      180.000000       11.486420         2
        10         9        11        18     9        0.000000        0.105437         3
        10         9        11        18     9      180.000000       -0.283336         4
        10         9        12        15     9        0.000000        0.086580         1
        10         9        12        15     9      180.000000       13.272673         2
        10         9        12        15     9        0.000000        0.057965         3
        10         9        12        15     9      180.000000       -0.452341         4
        10         9        12        21     9        0.000000        0.037626         1
        10         9        12        21     9      180.000000       11.166344         2
        10         9        12        21     9        0.000000        0.189707         3
        10         9        12        21     9      180.000000       -0.058170         4
        10        13         6        16     9        0.000000        1.083638         1
        10        13         6        16     9      180.000000        5.220414         2
        10        13         6        16     9        0.000000        0.057642         3
        10        13         6        16     9      180.000000       -0.296605         4
        10        13         6        17     9        0.000000        1.819561         1
        10        13         6        17     9      180.000000        1.650810         2
        10        13         6        17     9        0.000000        0.171622         3
        10        13         6        17     9      180.000000        0.091475         4
        10        13        38        37     9        0.000000        1.322419         1
        10        13        38        37     9      180.000000        2.526616         2
        10        13        38        37     9        0.000000       -0.475998         3
        10        13        38        37     9      180.000000        0.401525         4
        10        13        38        39     9        0.000000       -0.933999         1
        10        13        38        39     9      180.000000        4.157261         2
        10        13        38        39     9        0.000000        0.720111         3
        10        13        38        39     9      180.000000        0.256555         4
        11         9        10        13     9        0.000000       -0.428566         1
        11         9        10        13     9      180.000000       10.347701         2
        11         9        10        13     9        0.000000       -1.364636         3
        11         9        10        13     9      180.000000       -0.101883         4
        11         9        10        20     9        0.000000        0.478851         1
        11         9        10        20     9      180.000000        8.260083         2
        11         9        10        20     9        0.000000       -0.086322         3
        11         9        10        20     9      180.000000       -0.219572         4
        11         9        12        15     9        0.000000        0.124020         1
        11         9        12        15     9      180.000000       14.620136         2
        11         9        12        15     9        0.000000       -0.245939         3
        11         9        12        15     9      180.000000       -0.471944         4
        11         9        12        21     9        0.000000        0.227010         1
        11         9        12        21     9      180.000000       12.248749         2
        11         9        12        21     9        0.000000       -0.238272         3
        11         9        12        21     9      180.000000       -0.273822         4
        11        17         6        13     9        0.000000       -0.556872         1
        11        17         6        13     9      180.000000        3.518599         2
        11        17         6        13     9        0.000000        0.323958         3
        11        17         6        13     9      180.000000        0.253518         4
        11        17         6        16     9        0.000000        0.791379         1
        11        17         6        16     9      180.000000        9.133501         2
        11        17         6        16     9        0.000000       -0.588199         3
        11        17         6        16     9      180.000000       -0.106001         4
        11        17        14        31     9        0.000000       -0.098620         1
        11        17        14        31     9      180.000000        0.007715         2
        11        17        14        31     9        0.000000       -0.079691         3
        11        17        14        31     9      180.000000        0.039287         4
        11        17        14        32     9        0.000000       -0.098620         1
        11        17        14        32     9      180.000000        0.007715         2
        11        17        14        32     9        0.000000       -0.079691         3
        11        17        14        32     9      180.000000        0.039287         4
        11        17        14        33     9        0.000000       -0.098620         1
        11        17        14        33     9      180.000000        0.007715         2
        11        17        14        33     9        0.000000       -0.079691         3
        11        17        14        33     9      180.000000        0.039287         4
        11        18         7        15     9        0.000000        0.806826         1
        11        18         7        15     9      180.000000        9.806353         2
        11        18         7        15     9        0.000000        0.581594         3
        11        18         7        15     9      180.000000       -0.413746         4
        11        18         7        19     9        0.000000        0.732846         1
        11        18         7        19     9      180.000000       15.830290         2
        11        18         7        19     9        0.000000        0.244329         3
        11        18         7        19     9      180.000000       -0.983909         4
        12         9        10        13     9        0.000000       -0.306030         1
        12         9        10        13     9      180.000000        7.131400         2
        12         9        10        13     9        0.000000       -0.480916         3
        12         9        10        13     9      180.000000        0.151200         4
        12         9        10        20     9        0.000000       -0.385793         1
        12         9        10        20     9      180.000000        4.909212         2
        12         9        10        20     9        0.000000       -0.285512         3
        12         9        10        20     9      180.000000       -0.003053         4
        12         9        11        17     9        0.000000       -0.463213         1
        12         9        11        17     9      180.000000       11.491074         2
        12         9        11        17     9        0.000000       -0.359340         3
        12         9        11        17     9      180.000000       -0.307702         4
        12         9        11        18     9        0.000000       -0.066211         1
        12         9        11        18     9      180.000000       10.739840         2
        12         9        11        18     9        0.000000        0.128590         3
        12         9        11        18     9      180.000000       -0.268197         4
        12        15         7        18     9        0.000000        0.636353         1
        12        15         7        18     9      180.000000        9.457491         2
        12        15         7        18     9        0.000000        0.789407         3
        12        15         7        18     9      180.000000       -0.502652         4
        12        15         7        19     9        0.000000        1.240201         1
        12        15         7        19     9      180.000000       14.760845         2
        12        15         7        19     9        0.000000        0.431977         3
        12        15         7        19     9      180.000000       -0.776495         4
        13         6        17        14     9        0.000000        0.068622         1
        13         6        17        14     9      180.000000        9.670502         2
        13         6        17        14     9        0.000000        0.178734         3
        13         6        17        14     9      180.000000       -0.088070         4
        13        38        37        36     9        0.000000        0.138275         1
        13        38        37        36     9      180.000000       13.573700         2
        13        38        37        36     9        0.000000       -0.215822         3
        13        38        37        36     9      180.000000       -0.288020         4
        13        38        37        43     9        0.000000       -0.105070         1
        13        38        37        43     9      180.000000       14.937666         2
        13        38        37        43     9        0.000000        0.063095         3
        13        38        37        43     9      180.000000       -0.452458         4
        13        38        39        40     9        0.000000        0.242304         1
        13        38        39        40     9      180.000000       16.134441         2
        13        38        39        40     9        0.000000        0.021895         3
        13        38        39        40     9      180.000000       -0.294044         4
        13        38        39        44     9        0.000000       -0.017678         1
        13        38        39        44     9      180.000000       13.152489         2
        13        38        39        44     9        0.000000       -0.205350         3
        13        38        39        44     9      180.000000        0.253086         4
        14        17         6        16     9        0.000000       -0.480649         1
        14        17         6        16     9      180.000000       11.102420         2
        14        17         6        16     9        0.000000       -1.150873         3
        14        17         6        16     9      180.000000        0.568732         4
        14        17        11        18     9        0.000000       -1.075565         1
        14        17        11        18     9      180.000000       10.183293         2
        14        17        11        18     9        0.000000       -0.144780         3
        14        17        11        18     9      180.000000        0.181851         4
        15         7        19        34     9        0.000000       -0.519508         1
        15         7        19        34     9      180.000000       10.556825         2
        15         7        19        34     9        0.000000       -0.449027         3
        15         7        19        34     9      180.000000       -0.622276         4
        16         6        13        38     9        0.000000       -1.825224         1
        16         6        13        38     9      180.000000        9.010152         2
        16         6        13        38     9        0.000000       -0.416250         3
        16         6        13        38     9      180.000000       -0.245597         4
        17         6        13        38     9        0.000000       -0.359335         1
        17         6        13        38     9      180.000000        5.689787         2
        17         6        13        38     9        0.000000        0.186956         3
        17         6        13        38     9      180.000000       -0.073277         4
        18         7        19        34     9        0.000000        0.761520         1
        18         7        19        34     9      180.000000       10.627039         2
        18         7        19        34     9        0.000000       -0.502671         3
        18         7        19        34     9      180.000000       -0.486246         4
        19         8         1        22     9        0.000000        0.103752         1
        19         8         1        22     9      180.000000        0.093489         2
        19         8         1        22     9        0.000000        0.307978         3
        19         8         1        22     9      180.000000       -0.046607         4
        19         8         1        23     9        0.000000        0.103752         1
        19         8         1        23     9      180.000000        0.093489         2
        19         8         1        23     9        0.000000        0.307978         3
        19         8         1        23     9      180.000000       -0.046607         4
        19         8         4        28     9        0.000000        0.103752         1
        19         8         4        28     9      180.000000        0.093489         2
        19         8         4        28     9        0.000000        0.307978         3
        19         8         4        28     9      180.000000       -0.046607         4
        19         8         4        29     9        0.000000        0.103752         1
        19         8         4        29     9      180.000000        0.093489         2
        19         8         4        29     9        0.000000        0.307978         3
        19         8         4        29     9      180.000000       -0.046607         4
        20        10        13        38     9        0.000000        0.085609         1
        20        10        13        38     9      180.000000       17.195297         2
        20        10        13        38     9        0.000000        0.123208         3
        20        10        13        38     9      180.000000       -0.076788         4
        22         1         2        24     9        0.000000       -0.014072         1
        22         1         2        24     9      180.000000       -0.013164         2
        22         1         2        24     9        0.000000        0.310609         3
        22         1         2        24     9      180.000000        0.009991         4
        22         1         2        25     9        0.000000       -0.014072         1
        22         1         2        25     9      180.000000       -0.013164         2
        22         1         2        25     9        0.000000        0.310609         3
        22         1         2        25     9      180.000000        0.009991         4
        22         1         8        30     9        0.000000       -0.005225         1
        22         1         8        30     9      180.000000        0.012815         2
        22         1         8        30     9        0.000000        0.279744         3
        22         1         8        30     9      180.000000        0.088945         4
        23         1         2        24     9        0.000000       -0.014072         1
        23         1         2        24     9      180.000000       -0.013164         2
        23         1         2        24     9        0.000000        0.310609         3
        23         1         2        24     9      180.000000        0.009991         4
        23         1         2        25     9        0.000000       -0.014072         1
        23         1         2        25     9      180.000000       -0.013164         2
        23         1         2        25     9        0.000000        0.310609         3
        23         1         2        25     9      180.000000        0.009991         4
        23         1         8        30     9        0.000000       -0.005225         1
        23         1         8        30     9      180.000000        0.012815         2
        23         1         8        30     9        0.000000        0.279744         3
        23         1         8        30     9      180.000000        0.088945         4
        26         3         4        28     9        0.000000       -0.014072         1
        26         3         4        28     9      180.000000       -0.013164         2
        26         3         4        28     9        0.000000        0.310609         3
        26         3         4        28     9      180.000000        0.009990         4
        26         3         4        29     9        0.000000       -0.014072         1
        26         3         4        29     9      180.000000       -0.013164         2
        26         3         4        29     9        0.000000        0.310609         3
        26         3         4        29     9      180.000000        0.009990         4
        27         3         4        28     9        0.000000       -0.014072         1
        27         3         4        28     9      180.000000       -0.013164         2
        27         3         4        28     9        0.000000        0.310609         3
        27         3         4        28     9      180.000000        0.009990         4
        27         3         4        29     9        0.000000       -0.014072         1
        27         3         4        29     9      180.000000       -0.013164         2
        27         3         4        29     9        0.000000        0.310609         3
        27         3         4        29     9      180.000000        0.009990         4
        28         4         8        30     9        0.000000       -0.005225         1
        28         4         8        30     9      180.000000        0.012815         2
        28         4         8        30     9        0.000000        0.279744         3
        28         4         8        30     9      180.000000        0.088945         4
        29         4         8        30     9        0.000000       -0.005225         1
        29         4         8        30     9      180.000000        0.012815         2
        29         4         8        30     9        0.000000        0.279744         3
        29         4         8        30     9      180.000000        0.088945         4
        30         8        19        34     9        0.000000       -0.695820         1
        30         8        19        34     9      180.000000       -0.162734         2
        30         8        19        34     9        0.000000        0.223778         3
        30         8        19        34     9      180.000000        0.050708         4
        35        36        37        38     9        0.000000        0.065922         1
        35        36        37        38     9      180.000000       18.515530         2
        35        36        37        38     9        0.000000       -1.448576         3
        35        36        37        38     9      180.000000       -0.421485         4
        35        36        37        43     9        0.000000        0.413371         1
        35        36        37        43     9      180.000000       20.947361         2
        35        36        37        43     9        0.000000        0.490927         3
        35        36        37        43     9      180.000000       -0.791709         4
        35        40        39        38     9        0.000000        0.025363         1
        35        40        39        38     9      180.000000       19.226199         2
        35        40        39        38     9        0.000000       -1.781220         3
        35        40        39        38     9      180.000000       -0.481561         4
        35        40        39        44     9        0.000000        0.021481         1
        35        40        39        44     9      180.000000       14.970335         2
        35        40        39        44     9        0.000000       -0.692116         3
        35        40        39        44     9      180.000000        0.106005         4
        36        35        40        39     9        0.000000        0.013385         1
        36        35        40        39     9      180.000000       18.559004         2
        36        35        40        39     9        0.000000       -1.537973         3
        36        35        40        39     9      180.000000       -0.406110         4
        36        35        40        45     9        0.000000        0.052583         1
        36        35        40        45     9      180.000000       14.335949         2
        36        35        40        45     9        0.000000       -0.725975         3
        36        35        40        45     9      180.000000        0.115487         4
        36        37        38        39     9        0.000000       -0.098368         1
        36        37        38        39     9      180.000000       16.824538         2
        36        37        38        39     9        0.000000       -1.069479         3
        36        37        38        39     9      180.000000       -0.408570         4
        37        36        35        40     9        0.000000       -0.049644         1
        37        36        35        40     9      180.000000       18.674985         2
        37        36        35        40     9        0.000000       -1.540640         3
        37        36        35        40     9      180.000000       -0.393966         4
        37        36        35        41     9        0.000000        0.115129         1
        37        36        35        41     9      180.000000       14.108514         2
        37        36        35        41     9        0.000000       -0.606285         3
        37        36        35        41     9      180.000000        0.074070         4
        37        38        39        40     9        0.000000        0.040532         1
        37        38        39        40     9      180.000000       18.583191         2
        37        38        39        40     9        0.000000       -1.436164         3
        37        38        39        40     9      180.000000       -0.384848         4
        37        38        39        44     9        0.000000        0.056729         1
        37        38        39        44     9      180.000000       14.198116         2
        37        38        39        44     9        0.000000       -0.539791         3
        37        38        39        44     9      180.000000        0.140247         4
        38        37        36        42     9        0.000000        0.126899         1
        38        37        36        42     9      180.000000       14.007413         2
        38        37        36        42     9        0.000000       -0.538621         3
        38        37        36        42     9      180.000000        0.089946         4
        38        39        40        45     9        0.000000        0.053656         1
        38        39        40        45     9      180.000000       14.882104         2
        38        39        40        45     9        0.000000       -0.599033         3
        38        39        40        45     9      180.000000        0.026453         4
        39        38        37        43     9        0.000000        0.286264         1
        39        38        37        43     9      180.000000       16.795896         2
        39        38        37        43     9        0.000000        0.337541         3
        39        38        37        43     9      180.000000       -0.538428         4
        39        40        35        41     9        0.000000        0.021156         1
        39        40        35        41     9      180.000000       13.986597         2
        39        40        35        41     9        0.000000       -0.735940         3
        39        40        35        41     9      180.000000        0.093156         4
        40        35        36        42     9        0.000000       -0.018362         1
        40        35        36        42     9      180.000000       14.316196         2
        40        35        36        42     9        0.000000       -0.731241         3
        40        35        36        42     9      180.000000        0.186987         4
        41        35        36        42     9        0.000000       -0.218026         1
        41        35        36        42     9      180.000000       11.395542         2
        41        35        36        42     9        0.000000       -0.649900         3
        41        35        36        42     9      180.000000        0.295628         4
        41        35        40        45     9        0.000000       -0.135449         1
        41        35        40        45     9      180.000000       11.082765         2
        41        35        40        45     9        0.000000       -0.452089         3
        41        35        40        45     9      180.000000        0.213846         4
        42        36        37        43     9        0.000000        0.065536         1
        42        36        37        43     9      180.000000       14.768422         2
        42        36        37        43     9        0.000000       -0.008665         3
        42        36        37        43     9      180.000000        0.142789         4
        44        39        40        45     9        0.000000       -0.204635         1
        44        39        40        45     9      180.000000       12.227254         2
        44        39        40        45     9        0.000000       -0.677085         3
        44        39        40        45     9      180.000000        0.285807         4

[ dihedrals ] ; impropers
;       ai        aj        ak        al funct           phase               k        pn
         6        13        16        17     4      180.000000       25.873555         2
         6        16        17        13     4      180.000000       25.873555         2
         6        17        13        16     4      180.000000       25.873555         2
         7        15        18        19     4      180.000000       27.893333         2
         7        18        19        15     4      180.000000       27.893333         2
         7        19        15        18     4      180.000000       27.893333         2
        10         9        13        20     4      180.000000        3.389046         2
        10        13        20         9     4      180.000000        3.389046         2
        10        20         9        13     4      180.000000        3.389046         2
        11         9        17        18     4      180.000000       16.257650         2
        11        17        18         9     4      180.000000       16.257650         2
        11        18         9        17     4      180.000000       16.257650         2
        12         9        15        21     4      180.000000       14.681323         2
        12        15        21         9     4      180.000000       14.681323         2
        12        21         9        15     4      180.000000       14.681323         2

[ pairs ]
;       ai        aj funct
         1         3     1
         1         7     1
         1        28     1
         1        29     1
         1        34     1
         2         4     1
         2        19     1
         2        26     1
         2        27     1
         2        30     1
         3        19     1
         3        24     1
         3        25     1
         3        30     1
         4         7     1
         4        22     1
         4        23     1
         4        34     1
         5         8     1
         5        22     1
         5        23     1
         5        28     1
         5        29     1
         6         9     1
         6        18     1
         6        20     1
         6        31     1
         6        32     1
         6        33     1
         6        37     1
         6        39     1
         7         9     1
         7        17     1
         7        21     1
         7        30     1
         8        15     1
         8        18     1
         8        24     1
         8        25     1
         8        26     1
         8        27     1
         9        14     1
         9        38     1
        10        15     1
        10        16     1
        10        17     1
        10        18     1
        10        21     1
        10        37     1
        10        39     1
        11        13     1
        11        15     1
        11        16     1
        11        19     1
        11        20     1
        11        21     1
        11        31     1
        11        32     1
        11        33     1
        12        13     1
        12        17     1
        12        18     1
        12        19     1
        12        20     1
        13        14     1
        13        36     1
        13        40     1
        13        43     1
        13        44     1
        14        16     1
        14        18     1
        15        34     1
        16        38     1
        17        38     1
        18        34     1
        19        22     1
        19        23     1
        19        28     1
        19        29     1
        20        38     1
        22        24     1
        22        25     1
        22        30     1
        23        24     1
        23        25     1
        23        30     1
        26        28     1
        26        29     1
        27        28     1
        27        29     1
        28        30     1
        29        30     1
        30        34     1
        35        38     1
        35        43     1
        35        44     1
        36        39     1
        36        45     1
        37        40     1
        37        41     1
        37        44     1
        38        42     1
        38        45     1
        39        41     1
        39        43     1
        40        42     1
        41        42     1
        41        45     1
        42        43     1
        44        45     1
