; ITP file created by ByteFF-ML, 2026-02-21 08:22:16.042344

[ atomtypes ]
;name           bonded.type        at.num        mass        charge   ptype           sigma         epsilon
 c0bf                                   6      0.0000       0.00000       A     3.39757e-01     4.49688e-01
 c1bf                                   6      0.0000       0.00000       A     3.39799e-01     4.50408e-01
 c2bf                                   6      0.0000       0.00000       A     3.39799e-01     4.50408e-01
 c3bf                                   6      0.0000       0.00000       A     3.39757e-01     4.49688e-01
 c4bf                                   6      0.0000       0.00000       A     3.31468e-01     4.12718e-01
 n5bf                                   7      0.0000       0.00000       A     3.18192e-01     6.82364e-01
 c6bf                                   6      0.0000       0.00000       A     3.31426e-01     4.13955e-01
 c7bf                                   6      0.0000       0.00000       A     3.31482e-01     4.13404e-01
 c8bf                                   6      0.0000       0.00000       A     3.31542e-01     4.14110e-01
 c9bf                                   6      0.0000       0.00000       A     3.39733e-01     4.52037e-01
 c10bf                                  6      0.0000       0.00000       A     3.31327e-01     4.13299e-01
 c11bf                                  6      0.0000       0.00000       A     3.31646e-01     4.12777e-01
 c12bf                                  6      0.0000       0.00000       A     3.31488e-01     4.13497e-01
 c13bf                                  6      0.0000       0.00000       A     3.31494e-01     4.12507e-01
 c14bf                                  6      0.0000       0.00000       A     3.31504e-01     4.12314e-01
 c15bf                                  6      0.0000       0.00000       A     3.31345e-01     4.13845e-01
 c16bf                                  6      0.0000       0.00000       A     3.31262e-01     4.14236e-01
 c17bf                                  6      0.0000       0.00000       A     3.31255e-01     4.17977e-01
 c18bf                                  6      0.0000       0.00000       A     3.31474e-01     4.12750e-01
 c19bf                                  6      0.0000       0.00000       A     3.39751e-01     4.51327e-01
 f20bf                                  9      0.0000       0.00000       A     3.03295e-01     3.47905e-01
 f21bf                                  9      0.0000       0.00000       A     3.03414e-01     3.47611e-01
 o22bf                                  8      0.0000       0.00000       A     3.16224e-01     3.10258e-01
 n23bf                                  7      0.0000       0.00000       A     3.38488e-01     3.93278e-01
 o24bf                                  8      0.0000       0.00000       A     3.04735e-01     6.10225e-01
 n25bf                                  7      0.0000       0.00000       A     3.18016e-01     6.83025e-01
 n26bf                                  7      0.0000       0.00000       A     3.38471e-01     3.92089e-01
 n27bf                                  7      0.0000       0.00000       A     3.27910e-01     6.48189e-01
 h28bf                                  1      0.0000       0.00000       A     2.62547e-01     6.71514e-02
 h29bf                                  1      0.0000       0.00000       A     2.62373e-01     6.68945e-02
 h30bf                                  1      0.0000       0.00000       A     2.62520e-01     6.71642e-02
 h31bf                                  1      0.0000       0.00000       A     2.62452e-01     6.74148e-02
 h32bf                                  1      0.0000       0.00000       A     2.53572e-01     6.74323e-02
 h33bf                                  1      0.0000       0.00000       A     2.59901e-01     8.74678e-02
 h34bf                                  1      0.0000       0.00000       A     2.59901e-01     8.74678e-02
 h35bf                                  1      0.0000       0.00000       A     2.42137e-01     8.73146e-02
 h36bf                                  1      0.0000       0.00000       A     2.42137e-01     8.73146e-02
 h37bf                                  1      0.0000       0.00000       A     2.42137e-01     8.73146e-02
 h38bf                                  1      0.0000       0.00000       A     2.42137e-01     8.73146e-02
 h39bf                                  1      0.0000       0.00000       A     2.59901e-01     8.74678e-02
 h40bf                                  1      0.0000       0.00000       A     2.59901e-01     8.74678e-02
 h41bf                                  1      0.0000       0.00000       A     2.42304e-01     8.59005e-02
 h42bf                                  1      0.0000       0.00000       A     2.42068e-01     8.71789e-02
 h43bf                                  1      0.0000       0.00000       A     2.42068e-01     8.71789e-02
 h44bf                                  1      0.0000       0.00000       A     2.42068e-01     8.71789e-02
 h45bf                                  1      0.0000       0.00000       A     1.10329e-01     4.16526e-02
 c46bf                                  6      0.0000       0.00000       A     3.31594e-01     4.12608e-01
 o47bf                                  8      0.0000       0.00000       A     3.04741e-01     6.12399e-01
 c48bf                                  6      0.0000       0.00000       A     3.39855e-01     4.49600e-01
 h49bf                                  1      0.0000       0.00000       A     2.59956e-01     8.72874e-02
 h50bf                                  1      0.0000       0.00000       A     2.59956e-01     8.72874e-02
 h51bf                                  1      0.0000       0.00000       A     2.59956e-01     8.72874e-02

[ moleculetype ]
;name             nrexcl
 2ee                   3

[ atoms ]
;       nr            type      resi   res      atom      cgnr      charge          mass ; qtot
         1            c0bf         1   UNL        c0         1    -0.11081       12.0110 ; qtot   -0.111
         2            c1bf         1   UNL        c1         2     0.10356       12.0110 ; qtot   -0.007
         3            c2bf         1   UNL        c2         3     0.10356       12.0110 ; qtot    0.096
         4            c3bf         1   UNL        c3         4    -0.11081       12.0110 ; qtot   -0.015
         5            c4bf         1   UNL        c4         5    -0.17396       12.0110 ; qtot   -0.188
         6            n5bf         1   UNL        n5         6    -0.42461       14.0070 ; qtot   -0.613
         7            c6bf         1   UNL        c6         7     0.56377       12.0110 ; qtot   -0.049
         8            c7bf         1   UNL        c7         8     0.17941       12.0110 ; qtot    0.130
         9            c8bf         1   UNL        c8         9     0.41189       12.0110 ; qtot    0.542
        10            c9bf         1   UNL        c9        10     0.24142       12.0110 ; qtot    0.783
        11           c10bf         1   UNL       c10        11    -0.27669       12.0110 ; qtot    0.507
        12           c11bf         1   UNL       c11        12    -0.09552       12.0110 ; qtot    0.411
        13           c12bf         1   UNL       c12        13     0.18085       12.0110 ; qtot    0.592
        14           c13bf         1   UNL       c13        14    -0.14500       12.0110 ; qtot    0.447
        15           c14bf         1   UNL       c14        15    -0.07757       12.0110 ; qtot    0.369
        16           c15bf         1   UNL       c15        16     0.30604       12.0110 ; qtot    0.676
        17           c16bf         1   UNL       c16        17     0.20417       12.0110 ; qtot    0.880
        18           c17bf         1   UNL       c17        18     0.00731       12.0110 ; qtot    0.887
        19           c18bf         1   UNL       c18        19     0.05605       12.0110 ; qtot    0.943
        20           c19bf         1   UNL       c19        20     0.08123       12.0110 ; qtot    1.024
        21           f20bf         1   UNL       f20        21    -0.16069       18.9980 ; qtot    0.864
        22           f21bf         1   UNL       f21        22    -0.17407       18.9980 ; qtot    0.690
        23           o22bf         1   UNL       o22        23    -0.21226       15.9990 ; qtot    0.477
        24           n23bf         1   UNL       n23        24    -0.25003       14.0070 ; qtot    0.227
        25           o24bf         1   UNL       o24        25    -0.53096       15.9990 ; qtot   -0.304
        26           n25bf         1   UNL       n25        26    -0.36669       14.0070 ; qtot   -0.670
        27           n26bf         1   UNL       n26        27    -0.30579       14.0070 ; qtot   -0.976
        28           n27bf         1   UNL       n27        28    -0.90602       14.0070 ; qtot   -1.882
        29           h28bf         1   UNL       h28        29     0.14202        1.0080 ; qtot   -1.740
        30           h29bf         1   UNL       h29        30     0.14072        1.0080 ; qtot   -1.599
        31           h30bf         1   UNL       h30        31     0.15735        1.0080 ; qtot   -1.442
        32           h31bf         1   UNL       h31        32     0.20692        1.0080 ; qtot   -1.235
        33           h32bf         1   UNL       h32        33     0.02850        1.0080 ; qtot   -1.207
        34           h33bf         1   UNL       h33        34     0.05876        1.0080 ; qtot   -1.148
        35           h34bf         1   UNL       h34        35     0.05876        1.0080 ; qtot   -1.089
        36           h35bf         1   UNL       h35        36     0.05529        1.0080 ; qtot   -1.034
        37           h36bf         1   UNL       h36        37     0.05529        1.0080 ; qtot   -0.979
        38           h37bf         1   UNL       h37        38     0.05529        1.0080 ; qtot   -0.923
        39           h38bf         1   UNL       h38        39     0.05529        1.0080 ; qtot   -0.868
        40           h39bf         1   UNL       h39        40     0.05876        1.0080 ; qtot   -0.809
        41           h40bf         1   UNL       h40        41     0.05876        1.0080 ; qtot   -0.751
        42           h41bf         1   UNL       h41        42     0.06885        1.0080 ; qtot   -0.682
        43           h42bf         1   UNL       h42        43     0.06198        1.0080 ; qtot   -0.620
        44           h43bf         1   UNL       h43        44     0.06198        1.0080 ; qtot   -0.558
        45           h44bf         1   UNL       h44        45     0.06198        1.0080 ; qtot   -0.496
        46           h45bf         1   UNL       h45        46     0.49564        1.0080 ; qtot   -0.000
        47           c46bf         1   UNL       c46        47     0.59793       12.0110 ; qtot    0.598
        48           o47bf         1   UNL       o47        48    -0.60616       15.9990 ; qtot   -0.008
        49           c48bf         1   UNL       c48        49    -0.17571       12.0110 ; qtot   -0.184
        50           h49bf         1   UNL       h49        50     0.06134        1.0080 ; qtot   -0.123
        51           h50bf         1   UNL       h50        51     0.06134        1.0080 ; qtot   -0.061
        52           h51bf         1   UNL       h51        52     0.06134        1.0080 ; qtot   -0.000

[ bonds ]
;       ai        aj funct               r               k
         1         2     1        0.153198   183980.342432
         1        10     1        0.154159   171218.976440
         1        34     1        0.109413   299776.500684
         1        35     1        0.109413   299776.500684
         2         6     1        0.146731   188951.753662
         2        36     1        0.109381   296834.574609
         2        37     1        0.109381   296834.574609
         3         4     1        0.153198   183980.342432
         3         6     1        0.146731   188951.753662
         3        38     1        0.109381   296834.574609
         3        39     1        0.109381   296834.574609
         4        10     1        0.154159   171218.976440
         4        40     1        0.109413   299776.500684
         4        41     1        0.109413   299776.500684
         5         8     1        0.139038   316524.477588
         5        13     1        0.139274   306854.774512
         5        31     1        0.108387   329224.337451
         6        47     1        0.137213   283612.225488
         7        18     1        0.147699   176240.708545
         7        25     1        0.123181   585119.222852
         7        26     1        0.141002   186312.748779
         8        19     1        0.139881   278838.982227
         8        21     1        0.134995   302917.054395
         9        24     1        0.136147   237289.543457
         9        27     1        0.134743   274242.379150
         9        28     1        0.135783   337568.843311
        10        28     1        0.146310   196351.705688
        10        42     1        0.109346   302615.001465
        11        12     1        0.143064   268512.132715
        11        16     1        0.141888   250783.403125
        11        17     1        0.140370   289479.274219
        12        18     1        0.135694   413732.071777
        12        32     1        0.108546   321757.107910
        13        14     1        0.139128   306394.902246
        13        22     1        0.135607   292150.813379
        14        15     1        0.139766   317517.437012
        14        29     1        0.108444   326597.718066
        15        19     1        0.139462   301245.293066
        15        30     1        0.108442   325811.328320
        16        26     1        0.137714   269836.282910
        16        27     1        0.133500   325839.802197
        17        24     1        0.132440   375596.612549
        17        33     1        0.108989   309515.639160
        18        23     1        0.136853   261929.227734
        19        23     1        0.138211   245996.599658
        20        26     1        0.147084   183535.690283
        20        43     1        0.108968   310419.857129
        20        44     1        0.108968   310419.857129
        20        45     1        0.108968   310419.857129
        28        46     1        0.101196   417399.149609
        47        48     1        0.123423   591658.561523
        47        49     1        0.152241   177087.161572
        49        50     1        0.109260   307677.120508
        49        51     1        0.109260   307677.120508
        49        52     1        0.109260   307677.120508

[ angles ]
;       ai        aj        ak funct           theta             cth
         1         2         6     1      110.373535      691.254948
         1         2        36     1      110.349098      494.611417
         1         2        37     1      110.349098      494.611417
         1        10         4     1      110.469162      527.951646
         1        10        28     1      111.179565      592.682919
         1        10        42     1      108.408363      469.893698
         2         1        10     1      111.474953      638.263403
         2         1        34     1      109.366226      510.906902
         2         1        35     1      109.366226      510.906902
         2         6         3     1      115.939865      467.677523
         2         6        47     1      121.555344      543.086788
         3         4        10     1      111.474953      638.263403
         3         4        40     1      109.366226      510.906838
         3         4        41     1      109.366226      510.906838
         3         6        47     1      121.555344      543.086788
         4         3         6     1      110.373535      691.254948
         4         3        38     1      110.349098      494.611417
         4         3        39     1      110.349098      494.611417
         4        10        28     1      111.179565      592.682919
         4        10        42     1      108.408363      469.893698
         5         8        19     1      121.913330      589.890372
         5         8        21     1      119.021118      546.594501
         5        13        14     1      122.381203      586.088790
         5        13        22     1      118.423096      577.916724
         6         2        36     1      109.275131      441.293699
         6         2        37     1      109.275131      441.293699
         6         3        38     1      109.275131      441.293699
         6         3        39     1      109.275131      441.293699
         6        47        48     1      121.853439      634.045056
         6        47        49     1      117.206871      502.343128
         7        18        12     1      122.040298      724.098161
         7        18        23     1      116.128212      320.885526
         7        26        16     1      122.902298      565.957632
         7        26        20     1      117.580322      599.849206
         8         5        13     1      117.606956      745.241738
         8         5        31     1      120.750504      415.603623
         8        19        15     1      118.750526      612.866939
         8        19        23     1      120.038025      362.403759
         9        24        17     1      115.954872      932.625577
         9        27        16     1      116.584206      753.082077
         9        28        10     1      124.715164      450.154885
         9        28        46     1      113.997696      482.374353
        10         1        34     1      109.574219      493.339062
        10         1        35     1      109.574219      493.339062
        10         4        40     1      109.574219      493.339062
        10         4        41     1      109.574219      493.339062
        10        28        46     1      118.407898      413.327596
        11        12        18     1      119.936729      510.649743
        11        12        32     1      120.067749      410.568215
        11        16        26     1      119.377609      601.387051
        11        16        27     1      122.348953      733.650316
        11        17        24     1      123.613258      737.001807
        11        17        33     1      119.671646      407.383802
        12        11        16     1      119.790161      689.755154
        12        11        17     1      125.018837      443.693677
        12        18        23     1      121.720322      450.152427
        13         5        31     1      121.558578      415.206138
        13        14        15     1      118.578598      692.396968
        13        14        29     1      119.971153      420.856319
        14        13        22     1      119.175308      576.491115
        14        15        19     1      120.569313      694.362878
        14        15        30     1      120.676376      412.191418
        15        14        29     1      121.452782      418.521557
        15        19        23     1      120.941628      501.739750
        16        11        17     1      115.023621      848.614616
        16        26        20     1      119.145653      531.854578
        18         7        25     1      122.794418      308.084125
        18         7        26     1      115.680214      669.218912
        18        12        32     1      120.082497      430.961513
        18        23        19     1      118.724243      413.969854
        19         8        21     1      119.050255      408.388879
        19        15        30     1      118.790672      407.974539
        24         9        27     1      126.160011      634.095619
        24         9        28     1      116.860229      599.386474
        24        17        33     1      116.349670      436.996283
        25         7        26     1      121.284706      608.542102
        26        16        27     1      118.116982      541.711040
        26        20        43     1      109.003319      486.045664
        26        20        44     1      109.003319      486.045664
        26        20        45     1      109.003319      486.045664
        27         9        28     1      116.446609      534.877118
        28        10        42     1      106.409256      519.269124
        34         1        35     1      107.223549      356.587682
        36         2        37     1      107.284851      348.358668
        38         3        39     1      107.284851      348.358668
        40         4        41     1      107.223557      356.587682
        43        20        44     1      109.918945      341.457392
        43        20        45     1      109.918945      341.457392
        44        20        45     1      109.918945      341.457392
        47        49        50     1      110.304581      533.014697
        47        49        51     1      110.304581      533.014697
        47        49        52     1      110.304581      533.014697
        48        47        49     1      120.859108      453.461079
        50        49        51     1      108.655838      360.804050
        50        49        52     1      108.655838      360.804050
        51        49        52     1      108.655838      360.804050

[ dihedrals ] ; propers for gromacs 4.5 or higher, use funct 9
;       ai        aj        ak        al funct           phase               k        pn
         1         2         6         3     9        0.000000       -0.077896         1
         1         2         6         3     9      180.000000       -0.480968         2
         1         2         6         3     9        0.000000        0.511482         3
         1         2         6         3     9      180.000000        0.168409         4
         1         2         6        47     9        0.000000       -0.659209         1
         1         2         6        47     9      180.000000       -0.158999         2
         1         2         6        47     9        0.000000        0.366417         3
         1         2         6        47     9      180.000000        0.123361         4
         1        10         4         3     9        0.000000        5.045693         1
         1        10         4         3     9      180.000000       -4.417357         2
         1        10         4         3     9        0.000000       -0.298506         3
         1        10         4         3     9      180.000000        0.510493         4
         1        10         4        40     9        0.000000       -0.031414         1
         1        10         4        40     9      180.000000        0.104979         2
         1        10         4        40     9        0.000000        0.295550         3
         1        10         4        40     9      180.000000        0.011208         4
         1        10         4        41     9        0.000000       -0.031414         1
         1        10         4        41     9      180.000000        0.104979         2
         1        10         4        41     9        0.000000        0.295550         3
         1        10         4        41     9      180.000000        0.011208         4
         1        10        28         9     9        0.000000       -0.271052         1
         1        10        28         9     9      180.000000       -0.153711         2
         1        10        28         9     9        0.000000        0.565284         3
         1        10        28         9     9      180.000000        0.010513         4
         1        10        28        46     9        0.000000        0.105729         1
         1        10        28        46     9      180.000000        0.298019         2
         1        10        28        46     9        0.000000        0.040051         3
         1        10        28        46     9      180.000000       -0.042852         4
         2         1        10         4     9        0.000000        5.045693         1
         2         1        10         4     9      180.000000       -4.417357         2
         2         1        10         4     9        0.000000       -0.298506         3
         2         1        10         4     9      180.000000        0.510493         4
         2         1        10        28     9        0.000000       -1.054660         1
         2         1        10        28     9      180.000000       -1.847565         2
         2         1        10        28     9        0.000000        0.081550         3
         2         1        10        28     9      180.000000        0.356253         4
         2         1        10        42     9        0.000000       -0.149415         1
         2         1        10        42     9      180.000000       -0.044232         2
         2         1        10        42     9        0.000000        0.216684         3
         2         1        10        42     9      180.000000        0.007921         4
         2         6         3         4     9        0.000000       -0.077896         1
         2         6         3         4     9      180.000000       -0.480968         2
         2         6         3         4     9        0.000000        0.511482         3
         2         6         3         4     9      180.000000        0.168409         4
         2         6         3        38     9        0.000000       -0.012761         1
         2         6         3        38     9      180.000000        0.042770         2
         2         6         3        38     9        0.000000        0.635785         3
         2         6         3        38     9      180.000000        0.012354         4
         2         6         3        39     9        0.000000       -0.012761         1
         2         6         3        39     9      180.000000        0.042770         2
         2         6         3        39     9        0.000000        0.635785         3
         2         6         3        39     9      180.000000        0.012354         4
         2         6        47        48     9        0.000000       -0.227816         1
         2         6        47        48     9      180.000000       13.389429         2
         2         6        47        48     9        0.000000       -2.217264         3
         2         6        47        48     9      180.000000       -0.263792         4
         2         6        47        49     9        0.000000        4.877235         1
         2         6        47        49     9      180.000000       10.506611         2
         2         6        47        49     9        0.000000        0.243452         3
         2         6        47        49     9      180.000000       -0.556511         4
         3         4        10        28     9        0.000000       -1.054660         1
         3         4        10        28     9      180.000000       -1.847565         2
         3         4        10        28     9        0.000000        0.081550         3
         3         4        10        28     9      180.000000        0.356253         4
         3         4        10        42     9        0.000000       -0.149415         1
         3         4        10        42     9      180.000000       -0.044232         2
         3         4        10        42     9        0.000000        0.216684         3
         3         4        10        42     9      180.000000        0.007921         4
         3         6         2        36     9        0.000000       -0.012761         1
         3         6         2        36     9      180.000000        0.042770         2
         3         6         2        36     9        0.000000        0.635785         3
         3         6         2        36     9      180.000000        0.012354         4
         3         6         2        37     9        0.000000       -0.012761         1
         3         6         2        37     9      180.000000        0.042770         2
         3         6         2        37     9        0.000000        0.635785         3
         3         6         2        37     9      180.000000        0.012354         4
         3         6        47        48     9        0.000000       -0.227816         1
         3         6        47        48     9      180.000000       13.389429         2
         3         6        47        48     9        0.000000       -2.217264         3
         3         6        47        48     9      180.000000       -0.263792         4
         3         6        47        49     9        0.000000        4.877235         1
         3         6        47        49     9      180.000000       10.506611         2
         3         6        47        49     9        0.000000        0.243452         3
         3         6        47        49     9      180.000000       -0.556511         4
         4         3         6        47     9        0.000000       -0.659209         1
         4         3         6        47     9      180.000000       -0.158999         2
         4         3         6        47     9        0.000000        0.366417         3
         4         3         6        47     9      180.000000        0.123361         4
         4        10         1        34     9        0.000000       -0.031414         1
         4        10         1        34     9      180.000000        0.104980         2
         4        10         1        34     9        0.000000        0.295550         3
         4        10         1        34     9      180.000000        0.011208         4
         4        10         1        35     9        0.000000       -0.031414         1
         4        10         1        35     9      180.000000        0.104980         2
         4        10         1        35     9        0.000000        0.295550         3
         4        10         1        35     9      180.000000        0.011208         4
         4        10        28         9     9        0.000000       -0.271052         1
         4        10        28         9     9      180.000000       -0.153711         2
         4        10        28         9     9        0.000000        0.565284         3
         4        10        28         9     9      180.000000        0.010513         4
         4        10        28        46     9        0.000000        0.105729         1
         4        10        28        46     9      180.000000        0.298019         2
         4        10        28        46     9        0.000000        0.040051         3
         4        10        28        46     9      180.000000       -0.042852         4
         5         8        19        15     9        0.000000       -0.033769         1
         5         8        19        15     9      180.000000       15.070050         2
         5         8        19        15     9        0.000000       -0.822733         3
         5         8        19        15     9      180.000000       -0.166007         4
         5         8        19        23     9        0.000000        0.213515         1
         5         8        19        23     9      180.000000       15.796953         2
         5         8        19        23     9        0.000000        0.046168         3
         5         8        19        23     9      180.000000       -0.230207         4
         5        13        14        15     9        0.000000       -0.084562         1
         5        13        14        15     9      180.000000       17.436868         2
         5        13        14        15     9        0.000000       -1.215052         3
         5        13        14        15     9      180.000000       -0.350359         4
         5        13        14        29     9        0.000000        0.222596         1
         5        13        14        29     9      180.000000       12.990701         2
         5        13        14        29     9        0.000000       -0.533192         3
         5        13        14        29     9      180.000000        0.123340         4
         6         2         1        10     9        0.000000        0.929583         1
         6         2         1        10     9      180.000000       -1.626868         2
         6         2         1        10     9        0.000000        0.329573         3
         6         2         1        10     9      180.000000        0.013355         4
         6         2         1        34     9        0.000000       -0.030016         1
         6         2         1        34     9      180.000000        0.065318         2
         6         2         1        34     9        0.000000        0.275188         3
         6         2         1        34     9      180.000000       -0.054622         4
         6         2         1        35     9        0.000000       -0.030016         1
         6         2         1        35     9      180.000000        0.065318         2
         6         2         1        35     9        0.000000        0.275188         3
         6         2         1        35     9      180.000000       -0.054622         4
         6         3         4        10     9        0.000000        0.929583         1
         6         3         4        10     9      180.000000       -1.626868         2
         6         3         4        10     9        0.000000        0.329573         3
         6         3         4        10     9      180.000000        0.013355         4
         6         3         4        40     9        0.000000       -0.030016         1
         6         3         4        40     9      180.000000        0.065319         2
         6         3         4        40     9        0.000000        0.275187         3
         6         3         4        40     9      180.000000       -0.054623         4
         6         3         4        41     9        0.000000       -0.030016         1
         6         3         4        41     9      180.000000        0.065319         2
         6         3         4        41     9        0.000000        0.275187         3
         6         3         4        41     9      180.000000       -0.054623         4
         6        47        49        50     9        0.000000       -0.008023         1
         6        47        49        50     9      180.000000        0.042774         2
         6        47        49        50     9        0.000000       -0.065034         3
         6        47        49        50     9      180.000000       -0.008472         4
         6        47        49        51     9        0.000000       -0.008023         1
         6        47        49        51     9      180.000000        0.042774         2
         6        47        49        51     9        0.000000       -0.065034         3
         6        47        49        51     9      180.000000       -0.008472         4
         6        47        49        52     9        0.000000       -0.008023         1
         6        47        49        52     9      180.000000        0.042774         2
         6        47        49        52     9        0.000000       -0.065034         3
         6        47        49        52     9      180.000000       -0.008472         4
         7        18        12        11     9        0.000000       -0.265137         1
         7        18        12        11     9      180.000000       20.042194         2
         7        18        12        11     9        0.000000       -0.708806         3
         7        18        12        11     9      180.000000       -0.884190         4
         7        18        12        32     9        0.000000       -0.033528         1
         7        18        12        32     9      180.000000       15.197706         2
         7        18        12        32     9        0.000000       -0.108211         3
         7        18        12        32     9      180.000000        0.062165         4
         7        18        23        19     9        0.000000        1.516945         1
         7        18        23        19     9      180.000000        3.262531         2
         7        18        23        19     9        0.000000        1.468404         3
         7        18        23        19     9      180.000000       -0.331072         4
         7        26        16        11     9        0.000000       -0.733726         1
         7        26        16        11     9      180.000000        5.946970         2
         7        26        16        11     9        0.000000       -0.505434         3
         7        26        16        11     9      180.000000        0.176990         4
         7        26        16        27     9        0.000000        0.444341         1
         7        26        16        27     9      180.000000        7.793681         2
         7        26        16        27     9        0.000000        0.430302         3
         7        26        16        27     9      180.000000       -0.208931         4
         7        26        20        43     9        0.000000        0.022638         1
         7        26        20        43     9      180.000000        0.065320         2
         7        26        20        43     9        0.000000       -0.063790         3
         7        26        20        43     9      180.000000        0.031607         4
         7        26        20        44     9        0.000000        0.022638         1
         7        26        20        44     9      180.000000        0.065320         2
         7        26        20        44     9        0.000000       -0.063790         3
         7        26        20        44     9      180.000000        0.031607         4
         7        26        20        45     9        0.000000        0.022638         1
         7        26        20        45     9      180.000000        0.065320         2
         7        26        20        45     9        0.000000       -0.063790         3
         7        26        20        45     9      180.000000        0.031607         4
         8         5        13        14     9        0.000000       -0.101773         1
         8         5        13        14     9      180.000000       17.261374         2
         8         5        13        14     9        0.000000       -1.245547         3
         8         5        13        14     9      180.000000       -0.369105         4
         8         5        13        22     9        0.000000        0.202544         1
         8         5        13        22     9      180.000000       22.811181         2
         8         5        13        22     9        0.000000        0.550755         3
         8         5        13        22     9      180.000000       -0.701551         4
         8        19        15        14     9        0.000000       -0.019541         1
         8        19        15        14     9      180.000000       17.479613         2
         8        19        15        14     9        0.000000       -1.174083         3
         8        19        15        14     9      180.000000       -0.342804         4
         8        19        15        30     9        0.000000        0.103760         1
         8        19        15        30     9      180.000000       12.825624         2
         8        19        15        30     9        0.000000       -0.551225         3
         8        19        15        30     9      180.000000        0.193193         4
         8        19        23        18     9        0.000000        0.381500         1
         8        19        23        18     9      180.000000        2.030263         2
         8        19        23        18     9        0.000000        0.322851         3
         8        19        23        18     9      180.000000       -0.088607         4
         9        24        17        11     9        0.000000       -0.315688         1
         9        24        17        11     9      180.000000       20.909885         2
         9        24        17        11     9        0.000000       -1.463467         3
         9        24        17        11     9      180.000000       -0.227042         4
         9        24        17        33     9        0.000000        0.357883         1
         9        24        17        33     9      180.000000       19.018619         2
         9        24        17        33     9        0.000000       -0.094002         3
         9        24        17        33     9      180.000000       -0.241065         4
         9        27        16        11     9        0.000000       -0.256988         1
         9        27        16        11     9      180.000000       12.342726         2
         9        27        16        11     9        0.000000       -0.532318         3
         9        27        16        11     9      180.000000       -0.015120         4
         9        27        16        26     9        0.000000       -0.268198         1
         9        27        16        26     9      180.000000       16.435080         2
         9        27        16        26     9        0.000000        0.522123         3
         9        27        16        26     9      180.000000       -0.468772         4
         9        28        10        42     9        0.000000       -0.128402         1
         9        28        10        42     9      180.000000        0.234258         2
         9        28        10        42     9        0.000000        0.658158         3
         9        28        10        42     9      180.000000        0.033419         4
        10         1         2        36     9        0.000000       -0.016917         1
        10         1         2        36     9      180.000000        0.073343         2
        10         1         2        36     9        0.000000        0.245613         3
        10         1         2        36     9      180.000000        0.007936         4
        10         1         2        37     9        0.000000       -0.016917         1
        10         1         2        37     9      180.000000        0.073343         2
        10         1         2        37     9        0.000000        0.245613         3
        10         1         2        37     9      180.000000        0.007936         4
        10         4         3        38     9        0.000000       -0.016917         1
        10         4         3        38     9      180.000000        0.073343         2
        10         4         3        38     9        0.000000        0.245613         3
        10         4         3        38     9      180.000000        0.007936         4
        10         4         3        39     9        0.000000       -0.016917         1
        10         4         3        39     9      180.000000        0.073343         2
        10         4         3        39     9        0.000000        0.245613         3
        10         4         3        39     9      180.000000        0.007936         4
        10        28         9        24     9        0.000000        0.294461         1
        10        28         9        24     9      180.000000        7.760319         2
        10        28         9        24     9        0.000000        0.595271         3
        10        28         9        24     9      180.000000       -0.897024         4
        10        28         9        27     9        0.000000       -0.052734         1
        10        28         9        27     9      180.000000        8.218172         2
        10        28         9        27     9        0.000000        0.288029         3
        10        28         9        27     9      180.000000       -0.727231         4
        11        12        18        23     9        0.000000       -0.497504         1
        11        12        18        23     9      180.000000       27.319683         2
        11        12        18        23     9        0.000000       -0.115449         3
        11        12        18        23     9      180.000000       -1.532204         4
        11        16        26        20     9        0.000000       -0.020294         1
        11        16        26        20     9      180.000000        8.784534         2
        11        16        26        20     9        0.000000       -0.090448         3
        11        16        26        20     9      180.000000        0.170647         4
        12        11        16        26     9        0.000000        0.257458         1
        12        11        16        26     9      180.000000       13.068944         2
        12        11        16        26     9        0.000000       -0.102869         3
        12        11        16        26     9      180.000000       -0.472411         4
        12        11        16        27     9        0.000000        0.224114         1
        12        11        16        27     9      180.000000       12.213707         2
        12        11        16        27     9        0.000000        0.125591         3
        12        11        16        27     9      180.000000       -0.327032         4
        12        11        17        24     9        0.000000        0.059530         1
        12        11        17        24     9      180.000000       14.043683         2
        12        11        17        24     9        0.000000        0.087186         3
        12        11        17        24     9      180.000000       -0.510607         4
        12        11        17        33     9        0.000000        0.132621         1
        12        11        17        33     9      180.000000       12.128396         2
        12        11        17        33     9        0.000000        0.200812         3
        12        11        17        33     9      180.000000       -0.110094         4
        12        18         7        25     9        0.000000        0.484356         1
        12        18         7        25     9      180.000000        5.076079         2
        12        18         7        25     9        0.000000       -0.049823         3
        12        18         7        25     9      180.000000       -0.379185         4
        12        18         7        26     9        0.000000        1.749896         1
        12        18         7        26     9      180.000000        2.060494         2
        12        18         7        26     9        0.000000        0.186700         3
        12        18         7        26     9      180.000000        0.011112         4
        12        18        23        19     9        0.000000       -0.338245         1
        12        18        23        19     9      180.000000        4.737598         2
        12        18        23        19     9        0.000000       -1.572261         3
        12        18        23        19     9      180.000000        0.139854         4
        13         5         8        19     9        0.000000       -0.159544         1
        13         5         8        19     9      180.000000       17.441704         2
        13         5         8        19     9        0.000000       -1.253452         3
        13         5         8        19     9      180.000000       -0.342164         4
        13         5         8        21     9        0.000000        0.535263         1
        13         5         8        21     9      180.000000       22.924715         2
        13         5         8        21     9        0.000000        0.562820         3
        13         5         8        21     9      180.000000       -0.548398         4
        13        14        15        19     9        0.000000       -0.193831         1
        13        14        15        19     9      180.000000       18.718306         2
        13        14        15        19     9        0.000000       -1.470902         3
        13        14        15        19     9      180.000000       -0.444338         4
        13        14        15        30     9        0.000000        0.152983         1
        13        14        15        30     9      180.000000       14.549564         2
        13        14        15        30     9        0.000000       -0.624238         3
        13        14        15        30     9      180.000000        0.081753         4
        14        13         5        31     9        0.000000        0.181711         1
        14        13         5        31     9      180.000000       12.249439         2
        14        13         5        31     9        0.000000       -0.437418         3
        14        13         5        31     9      180.000000        0.175565         4
        14        15        19        23     9        0.000000        0.435183         1
        14        15        19        23     9      180.000000       18.963855         2
        14        15        19        23     9        0.000000        0.317361         3
        14        15        19        23     9      180.000000       -0.395936         4
        15        14        13        22     9        0.000000        0.505280         1
        15        14        13        22     9      180.000000       23.564142         2
        15        14        13        22     9        0.000000        0.449858         3
        15        14        13        22     9      180.000000       -0.661252         4
        15        19         8        21     9        0.000000        0.586984         1
        15        19         8        21     9      180.000000       18.000233         2
        15        19         8        21     9        0.000000        0.390466         3
        15        19         8        21     9      180.000000       -0.347261         4
        15        19        23        18     9        0.000000       -0.612805         1
        15        19        23        18     9      180.000000        3.389636         2
        15        19        23        18     9        0.000000       -0.690547         3
        15        19        23        18     9      180.000000        0.142857         4
        16        11        12        18     9        0.000000       -0.799091         1
        16        11        12        18     9      180.000000       11.980908         2
        16        11        12        18     9        0.000000       -1.633730         3
        16        11        12        18     9      180.000000       -0.275690         4
        16        11        12        32     9        0.000000        0.156704         1
        16        11        12        32     9      180.000000        8.220558         2
        16        11        12        32     9        0.000000       -0.341729         3
        16        11        12        32     9      180.000000       -0.142661         4
        16        11        17        24     9        0.000000        0.166299         1
        16        11        17        24     9      180.000000       14.579570         2
        16        11        17        24     9        0.000000       -0.219544         3
        16        11        17        24     9      180.000000       -0.409876         4
        16        11        17        33     9        0.000000        0.221468         1
        16        11        17        33     9      180.000000       12.179784         2
        16        11        17        33     9        0.000000       -0.249136         3
        16        11        17        33     9      180.000000       -0.223888         4
        16        26         7        18     9        0.000000       -1.654044         1
        16        26         7        18     9      180.000000        4.415846         2
        16        26         7        18     9        0.000000        0.016814         3
        16        26         7        18     9      180.000000        0.125021         4
        16        26         7        25     9        0.000000        0.389893         1
        16        26         7        25     9      180.000000       10.254704         2
        16        26         7        25     9        0.000000       -0.621592         3
        16        26         7        25     9      180.000000       -0.268591         4
        16        26        20        43     9        0.000000       -0.080403         1
        16        26        20        43     9      180.000000        0.031039         2
        16        26        20        43     9        0.000000       -0.111292         3
        16        26        20        43     9      180.000000        0.045004         4
        16        26        20        44     9        0.000000       -0.080403         1
        16        26        20        44     9      180.000000        0.031039         2
        16        26        20        44     9        0.000000       -0.111292         3
        16        26        20        44     9      180.000000        0.045004         4
        16        26        20        45     9        0.000000       -0.080403         1
        16        26        20        45     9      180.000000        0.031039         2
        16        26        20        45     9        0.000000       -0.111292         3
        16        26        20        45     9      180.000000        0.045004         4
        16        27         9        24     9        0.000000        0.800267         1
        16        27         9        24     9      180.000000        9.928387         2
        16        27         9        24     9        0.000000        0.587508         3
        16        27         9        24     9      180.000000       -0.404742         4
        16        27         9        28     9        0.000000        0.720412         1
        16        27         9        28     9      180.000000       16.051752         2
        16        27         9        28     9        0.000000        0.249018         3
        16        27         9        28     9      180.000000       -0.997194         4
        17        11        12        18     9        0.000000       -0.634902         1
        17        11        12        18     9      180.000000        8.738636         2
        17        11        12        18     9        0.000000       -0.852321         3
        17        11        12        18     9      180.000000        0.033652         4
        17        11        12        32     9        0.000000       -0.810136         1
        17        11        12        32     9      180.000000        4.826038         2
        17        11        12        32     9        0.000000       -0.379630         3
        17        11        12        32     9      180.000000       -0.055712         4
        17        11        16        26     9        0.000000       -0.381660         1
        17        11        16        26     9      180.000000       11.829440         2
        17        11        16        26     9        0.000000       -0.321284         3
        17        11        16        26     9      180.000000       -0.346175         4
        17        11        16        27     9        0.000000       -0.022521         1
        17        11        16        27     9      180.000000       11.108630         2
        17        11        16        27     9        0.000000        0.149539         3
        17        11        16        27     9      180.000000       -0.272534         4
        17        24         9        27     9        0.000000        0.675522         1
        17        24         9        27     9      180.000000        9.660827         2
        17        24         9        27     9        0.000000        0.779809         3
        17        24         9        27     9      180.000000       -0.509161         4
        17        24         9        28     9        0.000000        1.241835         1
        17        24         9        28     9      180.000000       15.068682         2
        17        24         9        28     9        0.000000        0.448349         3
        17        24         9        28     9      180.000000       -0.787612         4
        18         7        26        20     9        0.000000        0.463791         1
        18         7        26        20     9      180.000000        9.121670         2
        18         7        26        20     9        0.000000        0.308329         3
        18         7        26        20     9      180.000000        0.001685         4
        19         8         5        31     9        0.000000        0.204291         1
        19         8         5        31     9      180.000000       12.330683         2
        19         8         5        31     9        0.000000       -0.429751         3
        19         8         5        31     9      180.000000        0.180492         4
        19        15        14        29     9        0.000000        0.085472         1
        19        15        14        29     9      180.000000       14.240723         2
        19        15        14        29     9        0.000000       -0.502524         3
        19        15        14        29     9      180.000000        0.093111         4
        20        26         7        25     9        0.000000       -0.626933         1
        20        26         7        25     9      180.000000       11.384754         2
        20        26         7        25     9        0.000000       -1.173841         3
        20        26         7        25     9      180.000000        0.509300         4
        20        26        16        27     9        0.000000       -0.851046         1
        20        26        16        27     9      180.000000       10.023888         2
        20        26        16        27     9        0.000000       -0.110559         3
        20        26        16        27     9      180.000000        0.221242         4
        21         8         5        31     9        0.000000        0.356407         1
        21         8         5        31     9      180.000000       15.755417         2
        21         8         5        31     9        0.000000        0.173168         3
        21         8         5        31     9      180.000000        0.272104         4
        21         8        19        23     9        0.000000       -0.107429         1
        21         8        19        23     9      180.000000       20.900297         2
        21         8        19        23     9        0.000000        0.246361         3
        21         8        19        23     9      180.000000       -0.890880         4
        22        13         5        31     9        0.000000        0.302040         1
        22        13         5        31     9      180.000000       14.938911         2
        22        13         5        31     9        0.000000        0.256433         3
        22        13         5        31     9      180.000000        0.230067         4
        22        13        14        29     9        0.000000        0.256909         1
        22        13        14        29     9      180.000000       16.033530         2
        22        13        14        29     9        0.000000        0.305426         3
        22        13        14        29     9      180.000000        0.139760         4
        23        18         7        25     9        0.000000       -1.917023         1
        23        18         7        25     9      180.000000       10.924892         2
        23        18         7        25     9        0.000000       -0.430673         3
        23        18         7        25     9      180.000000       -0.290223         4
        23        18         7        26     9        0.000000        0.111385         1
        23        18         7        26     9      180.000000        7.207314         2
        23        18         7        26     9        0.000000        0.351182         3
        23        18         7        26     9      180.000000        0.012035         4
        23        18        12        32     9        0.000000        0.155001         1
        23        18        12        32     9      180.000000       19.751095         2
        23        18        12        32     9        0.000000        0.160795         3
        23        18        12        32     9      180.000000       -0.191934         4
        23        19        15        30     9        0.000000        0.172923         1
        23        19        15        30     9      180.000000       14.279827         2
        23        19        15        30     9        0.000000        0.166673         3
        23        19        15        30     9      180.000000        0.327322         4
        24         9        28        46     9        0.000000       -0.510020         1
        24         9        28        46     9      180.000000       10.572312         2
        24         9        28        46     9        0.000000       -0.450423         3
        24         9        28        46     9      180.000000       -0.633045         4
        27         9        28        46     9        0.000000        0.769186         1
        27         9        28        46     9      180.000000       10.637782         2
        27         9        28        46     9        0.000000       -0.504166         3
        27         9        28        46     9      180.000000       -0.495719         4
        28        10         1        34     9        0.000000        0.128547         1
        28        10         1        34     9      180.000000        0.089003         2
        28        10         1        34     9        0.000000        0.277914         3
        28        10         1        34     9      180.000000       -0.038300         4
        28        10         1        35     9        0.000000        0.128547         1
        28        10         1        35     9      180.000000        0.089003         2
        28        10         1        35     9        0.000000        0.277914         3
        28        10         1        35     9      180.000000       -0.038300         4
        28        10         4        40     9        0.000000        0.128547         1
        28        10         4        40     9      180.000000        0.089005         2
        28        10         4        40     9        0.000000        0.277913         3
        28        10         4        40     9      180.000000       -0.038301         4
        28        10         4        41     9        0.000000        0.128547         1
        28        10         4        41     9      180.000000        0.089005         2
        28        10         4        41     9        0.000000        0.277913         3
        28        10         4        41     9      180.000000       -0.038301         4
        29        14        15        30     9        0.000000       -0.156577         1
        29        14        15        30     9      180.000000       11.949669         2
        29        14        15        30     9        0.000000       -0.717197         3
        29        14        15        30     9      180.000000        0.181692         4
        34         1         2        36     9        0.000000       -0.019463         1
        34         1         2        36     9      180.000000        0.003835         2
        34         1         2        36     9        0.000000        0.302286         3
        34         1         2        36     9      180.000000        0.017197         4
        34         1         2        37     9        0.000000       -0.019463         1
        34         1         2        37     9      180.000000        0.003835         2
        34         1         2        37     9        0.000000        0.302286         3
        34         1         2        37     9      180.000000        0.017197         4
        34         1        10        42     9        0.000000        0.012615         1
        34         1        10        42     9      180.000000        0.003283         2
        34         1        10        42     9        0.000000        0.257634         3
        34         1        10        42     9      180.000000        0.126190         4
        35         1         2        36     9        0.000000       -0.019463         1
        35         1         2        36     9      180.000000        0.003835         2
        35         1         2        36     9        0.000000        0.302286         3
        35         1         2        36     9      180.000000        0.017197         4
        35         1         2        37     9        0.000000       -0.019463         1
        35         1         2        37     9      180.000000        0.003835         2
        35         1         2        37     9        0.000000        0.302286         3
        35         1         2        37     9      180.000000        0.017197         4
        35         1        10        42     9        0.000000        0.012615         1
        35         1        10        42     9      180.000000        0.003283         2
        35         1        10        42     9        0.000000        0.257634         3
        35         1        10        42     9      180.000000        0.126190         4
        36         2         6        47     9        0.000000        0.076275         1
        36         2         6        47     9      180.000000        0.027698         2
        36         2         6        47     9        0.000000        0.279251         3
        36         2         6        47     9      180.000000        0.026045         4
        37         2         6        47     9        0.000000        0.076275         1
        37         2         6        47     9      180.000000        0.027698         2
        37         2         6        47     9        0.000000        0.279251         3
        37         2         6        47     9      180.000000        0.026045         4
        38         3         4        40     9        0.000000       -0.019463         1
        38         3         4        40     9      180.000000        0.003836         2
        38         3         4        40     9        0.000000        0.302286         3
        38         3         4        40     9      180.000000        0.017197         4
        38         3         4        41     9        0.000000       -0.019463         1
        38         3         4        41     9      180.000000        0.003836         2
        38         3         4        41     9        0.000000        0.302286         3
        38         3         4        41     9      180.000000        0.017197         4
        38         3         6        47     9        0.000000        0.076275         1
        38         3         6        47     9      180.000000        0.027698         2
        38         3         6        47     9        0.000000        0.279251         3
        38         3         6        47     9      180.000000        0.026045         4
        39         3         4        40     9        0.000000       -0.019463         1
        39         3         4        40     9      180.000000        0.003836         2
        39         3         4        40     9        0.000000        0.302286         3
        39         3         4        40     9      180.000000        0.017197         4
        39         3         4        41     9        0.000000       -0.019463         1
        39         3         4        41     9      180.000000        0.003836         2
        39         3         4        41     9        0.000000        0.302286         3
        39         3         4        41     9      180.000000        0.017197         4
        39         3         6        47     9        0.000000        0.076275         1
        39         3         6        47     9      180.000000        0.027698         2
        39         3         6        47     9        0.000000        0.279251         3
        39         3         6        47     9      180.000000        0.026045         4
        40         4        10        42     9        0.000000        0.012615         1
        40         4        10        42     9      180.000000        0.003283         2
        40         4        10        42     9        0.000000        0.257634         3
        40         4        10        42     9      180.000000        0.126190         4
        41         4        10        42     9        0.000000        0.012615         1
        41         4        10        42     9      180.000000        0.003283         2
        41         4        10        42     9        0.000000        0.257634         3
        41         4        10        42     9      180.000000        0.126190         4
        42        10        28        46     9        0.000000       -0.676598         1
        42        10        28        46     9      180.000000       -0.130944         2
        42        10        28        46     9        0.000000        0.222912         3
        42        10        28        46     9      180.000000        0.055575         4
        48        47        49        50     9        0.000000        0.012545         1
        48        47        49        50     9      180.000000        0.059217         2
        48        47        49        50     9        0.000000        0.233297         3
        48        47        49        50     9      180.000000       -0.026093         4
        48        47        49        51     9        0.000000        0.012545         1
        48        47        49        51     9      180.000000        0.059217         2
        48        47        49        51     9        0.000000        0.233297         3
        48        47        49        51     9      180.000000       -0.026093         4
        48        47        49        52     9        0.000000        0.012545         1
        48        47        49        52     9      180.000000        0.059217         2
        48        47        49        52     9        0.000000        0.233297         3
        48        47        49        52     9      180.000000       -0.026093         4

[ dihedrals ] ; impropers
;       ai        aj        ak        al funct           phase               k        pn
         7        18        25        26     4      180.000000       20.883038         2
         7        25        26        18     4      180.000000       20.883038         2
         7        26        18        25     4      180.000000       20.883038         2
         9        24        27        28     4      180.000000       27.893333         2
         9        27        28        24     4      180.000000       27.893333         2
         9        28        24        27     4      180.000000       27.893333         2
        12        11        18        32     4      180.000000        2.344823         2
        12        18        32        11     4      180.000000        2.344823         2
        12        32        11        18     4      180.000000        2.344823         2
        13         5        14        22     4      180.000000        0.457750         2
        13        14        22         5     4      180.000000        0.457750         2
        13        22         5        14     4      180.000000        0.457750         2
        15        14        19        30     4      180.000000        1.019581         2
        15        19        30        14     4      180.000000        1.019581         2
        15        30        14        19     4      180.000000        1.019581         2
        16        11        26        27     4      180.000000       14.360232         2
        16        26        27        11     4      180.000000       14.360232         2
        16        27        11        26     4      180.000000       14.360232         2
        17        11        24        33     4      180.000000       13.789486         2
        17        24        33        11     4      180.000000       13.789486         2
        17        33        11        24     4      180.000000       13.789486         2
        47         6        48        49     4      180.000000       27.893333         2
        47        48        49         6     4      180.000000       27.893333         2
        47        49         6        48     4      180.000000       27.893333         2

[ pairs ]
;       ai        aj funct
         1         3     1
         1         9     1
         1        40     1
         1        41     1
         1        46     1
         1        47     1
         2         4     1
         2        28     1
         2        38     1
         2        39     1
         2        42     1
         2        48     1
         2        49     1
         3        28     1
         3        36     1
         3        37     1
         3        42     1
         3        48     1
         3        49     1
         4         9     1
         4        34     1
         4        35     1
         4        46     1
         4        47     1
         5        15     1
         5        23     1
         5        29     1
         6        10     1
         6        34     1
         6        35     1
         6        40     1
         6        41     1
         6        50     1
         6        51     1
         6        52     1
         7        11     1
         7        19     1
         7        27     1
         7        32     1
         7        43     1
         7        44     1
         7        45     1
         8        14     1
         8        18     1
         8        22     1
         8        30     1
         9        11     1
         9        26     1
         9        33     1
         9        42     1
        10        24     1
        10        27     1
        10        36     1
        10        37     1
        10        38     1
        10        39     1
        11        20     1
        11        23     1
        12        19     1
        12        24     1
        12        25     1
        12        26     1
        12        27     1
        12        33     1
        13        19     1
        13        21     1
        13        30     1
        14        23     1
        14        31     1
        15        18     1
        15        21     1
        15        22     1
        16        18     1
        16        24     1
        16        25     1
        16        28     1
        16        32     1
        16        33     1
        16        43     1
        16        44     1
        16        45     1
        17        18     1
        17        26     1
        17        27     1
        17        28     1
        17        32     1
        18        20     1
        19        29     1
        19        31     1
        20        25     1
        20        27     1
        21        23     1
        21        31     1
        22        29     1
        22        31     1
        23        25     1
        23        26     1
        23        30     1
        23        32     1
        24        46     1
        27        46     1
        28        34     1
        28        35     1
        28        40     1
        28        41     1
        29        30     1
        34        36     1
        34        37     1
        34        42     1
        35        36     1
        35        37     1
        35        42     1
        36        47     1
        37        47     1
        38        40     1
        38        41     1
        38        47     1
        39        40     1
        39        41     1
        39        47     1
        40        42     1
        41        42     1
        42        46     1
        48        50     1
        48        51     1
        48        52     1
