; ITP file created by ByteFF-ML, 2026-02-21 08:23:01.745603

[ atomtypes ]
;name           bonded.type        at.num        mass        charge   ptype           sigma         epsilon
 c0bf                                   6      0.0000       0.00000       A     3.39825e-01     4.50572e-01
 c1bf                                   6      0.0000       0.00000       A     3.39678e-01     4.51033e-01
 c2bf                                   6      0.0000       0.00000       A     3.39678e-01     4.51033e-01
 c3bf                                   6      0.0000       0.00000       A     3.39825e-01     4.50572e-01
 c4bf                                   6      0.0000       0.00000       A     3.31524e-01     4.13530e-01
 o5bf                                   8      0.0000       0.00000       A     3.15644e-01     3.03351e-01
 c6bf                                   6      0.0000       0.00000       A     3.31426e-01     4.13955e-01
 c7bf                                   6      0.0000       0.00000       A     3.31487e-01     4.13412e-01
 c8bf                                   6      0.0000       0.00000       A     3.31542e-01     4.14110e-01
 c9bf                                   6      0.0000       0.00000       A     3.39714e-01     4.52178e-01
 c10bf                                  6      0.0000       0.00000       A     3.31327e-01     4.13299e-01
 c11bf                                  6      0.0000       0.00000       A     3.31646e-01     4.12777e-01
 c12bf                                  6      0.0000       0.00000       A     3.31504e-01     4.12201e-01
 c13bf                                  6      0.0000       0.00000       A     3.31518e-01     4.12956e-01
 c14bf                                  6      0.0000       0.00000       A     3.31542e-01     4.12576e-01
 c15bf                                  6      0.0000       0.00000       A     3.31345e-01     4.13845e-01
 c16bf                                  6      0.0000       0.00000       A     3.31262e-01     4.14236e-01
 c17bf                                  6      0.0000       0.00000       A     3.31252e-01     4.17701e-01
 c18bf                                  6      0.0000       0.00000       A     3.31486e-01     4.12471e-01
 c19bf                                  6      0.0000       0.00000       A     3.39751e-01     4.51327e-01
 o20bf                                  8      0.0000       0.00000       A     3.15988e-01     3.09748e-01
 n21bf                                  7      0.0000       0.00000       A     3.38488e-01     3.93278e-01
 o22bf                                  8      0.0000       0.00000       A     3.04735e-01     6.10225e-01
 n23bf                                  7      0.0000       0.00000       A     3.18016e-01     6.83025e-01
 n24bf                                  7      0.0000       0.00000       A     3.38471e-01     3.92089e-01
 n25bf                                  7      0.0000       0.00000       A     3.27859e-01     6.48853e-01
 h26bf                                  1      0.0000       0.00000       A     2.62504e-01     6.70573e-02
 h27bf                                  1      0.0000       0.00000       A     2.62525e-01     6.72392e-02
 f28bf                                  9      0.0000       0.00000       A     3.03453e-01     3.47361e-01
 h29bf                                  1      0.0000       0.00000       A     2.62452e-01     6.74148e-02
 h30bf                                  1      0.0000       0.00000       A     2.53572e-01     6.74323e-02
 h31bf                                  1      0.0000       0.00000       A     2.59805e-01     8.76130e-02
 h32bf                                  1      0.0000       0.00000       A     2.59805e-01     8.76130e-02
 h33bf                                  1      0.0000       0.00000       A     2.42083e-01     8.71949e-02
 h34bf                                  1      0.0000       0.00000       A     2.42083e-01     8.71949e-02
 h35bf                                  1      0.0000       0.00000       A     2.42083e-01     8.71949e-02
 h36bf                                  1      0.0000       0.00000       A     2.42083e-01     8.71949e-02
 h37bf                                  1      0.0000       0.00000       A     2.59805e-01     8.76130e-02
 h38bf                                  1      0.0000       0.00000       A     2.59805e-01     8.76130e-02
 h39bf                                  1      0.0000       0.00000       A     2.42326e-01     8.58414e-02
 h40bf                                  1      0.0000       0.00000       A     2.42068e-01     8.71789e-02
 h41bf                                  1      0.0000       0.00000       A     2.42068e-01     8.71789e-02
 h42bf                                  1      0.0000       0.00000       A     2.42068e-01     8.71789e-02
 h43bf                                  1      0.0000       0.00000       A     1.10329e-01     4.16526e-02
 h44bf                                  1      0.0000       0.00000       A     2.62432e-01     6.69886e-02
 h45bf                                  1      0.0000       0.00000       A     2.62514e-01     6.71323e-02

[ moleculetype ]
;name             nrexcl
 2f                    3

[ atoms ]
;       nr            type      resi   res      atom      cgnr      charge          mass ; qtot
         1            c0bf         1   UNL        c0         1    -0.12568       12.0110 ; qtot   -0.126
         2            c1bf         1   UNL        c1         2     0.15457       12.0110 ; qtot    0.029
         3            c2bf         1   UNL        c2         3     0.15457       12.0110 ; qtot    0.183
         4            c3bf         1   UNL        c3         4    -0.12568       12.0110 ; qtot    0.058
         5            c4bf         1   UNL        c4         5     0.18491       12.0110 ; qtot    0.243
         6            o5bf         1   UNL        o5         6    -0.46215       15.9990 ; qtot   -0.219
         7            c6bf         1   UNL        c6         7     0.56268       12.0110 ; qtot    0.343
         8            c7bf         1   UNL        c7         8    -0.17886       12.0110 ; qtot    0.164
         9            c8bf         1   UNL        c8         9     0.41197       12.0110 ; qtot    0.576
        10            c9bf         1   UNL        c9        10     0.24222       12.0110 ; qtot    0.819
        11           c10bf         1   UNL       c10        11    -0.27669       12.0110 ; qtot    0.542
        12           c11bf         1   UNL       c11        12    -0.09859       12.0110 ; qtot    0.443
        13           c12bf         1   UNL       c12        13    -0.16423       12.0110 ; qtot    0.279
        14           c13bf         1   UNL       c13        14    -0.06349       12.0110 ; qtot    0.216
        15           c14bf         1   UNL       c14        15    -0.14984       12.0110 ; qtot    0.066
        16           c15bf         1   UNL       c15        16     0.30604       12.0110 ; qtot    0.372
        17           c16bf         1   UNL       c16        17     0.20417       12.0110 ; qtot    0.576
        18           c17bf         1   UNL       c17        18     0.00437       12.0110 ; qtot    0.580
        19           c18bf         1   UNL       c18        19     0.14321       12.0110 ; qtot    0.724
        20           c19bf         1   UNL       c19        20     0.08123       12.0110 ; qtot    0.805
        21           o20bf         1   UNL       o20        21    -0.21768       15.9990 ; qtot    0.587
        22           n21bf         1   UNL       n21        22    -0.25003       14.0070 ; qtot    0.337
        23           o22bf         1   UNL       o22        23    -0.53096       15.9990 ; qtot   -0.194
        24           n23bf         1   UNL       n23        24    -0.36669       14.0070 ; qtot   -0.561
        25           n24bf         1   UNL       n24        25    -0.30579       14.0070 ; qtot   -0.866
        26           n25bf         1   UNL       n25        26    -0.90583       14.0070 ; qtot   -1.772
        27           h26bf         1   UNL       h26        27     0.12351        1.0080 ; qtot   -1.649
        28           h27bf         1   UNL       h27        28     0.13266        1.0080 ; qtot   -1.516
        29           f28bf         1   UNL       f28        29    -0.17550       18.9980 ; qtot   -1.692
        30           h29bf         1   UNL       h29        30     0.20692        1.0080 ; qtot   -1.485
        31           h30bf         1   UNL       h30        31     0.02850        1.0080 ; qtot   -1.456
        32           h31bf         1   UNL       h31        32     0.05821        1.0080 ; qtot   -1.398
        33           h32bf         1   UNL       h32        33     0.05821        1.0080 ; qtot   -1.340
        34           h33bf         1   UNL       h33        34     0.04708        1.0080 ; qtot   -1.293
        35           h34bf         1   UNL       h34        35     0.04708        1.0080 ; qtot   -1.246
        36           h35bf         1   UNL       h35        36     0.04708        1.0080 ; qtot   -1.198
        37           h36bf         1   UNL       h36        37     0.04708        1.0080 ; qtot   -1.151
        38           h37bf         1   UNL       h37        38     0.05821        1.0080 ; qtot   -1.093
        39           h38bf         1   UNL       h38        39     0.05821        1.0080 ; qtot   -1.035
        40           h39bf         1   UNL       h39        40     0.06788        1.0080 ; qtot   -0.967
        41           h40bf         1   UNL       h40        41     0.06198        1.0080 ; qtot   -0.905
        42           h41bf         1   UNL       h41        42     0.06198        1.0080 ; qtot   -0.843
        43           h42bf         1   UNL       h42        43     0.06198        1.0080 ; qtot   -0.781
        44           h43bf         1   UNL       h43        44     0.49590        1.0080 ; qtot   -0.285
        45           h44bf         1   UNL       h44        45     0.14884        1.0080 ; qtot   -0.136
        46           h45bf         1   UNL       h45        46     0.13644        1.0080 ; qtot    0.000

[ bonds ]
;       ai        aj funct               r               k
         1         2     1        0.153597   178293.892139
         1        10     1        0.154056   172093.226611
         1        32     1        0.109441   299169.023926
         1        33     1        0.109441   299169.023926
         2         6     1        0.143005   196789.616040
         2        34     1        0.109640   291280.534229
         2        35     1        0.109640   291280.534229
         3         4     1        0.153597   178293.892139
         3         6     1        0.143005   196789.616040
         3        36     1        0.109640   291280.559766
         3        37     1        0.109640   291280.559766
         4        10     1        0.154056   172093.226611
         4        38     1        0.109441   299169.023926
         4        39     1        0.109441   299169.023926
         5         8     1        0.139107   312568.243066
         5        13     1        0.139176   303971.941309
         5        29     1        0.135629   289783.216895
         7        18     1        0.147749   175671.345923
         7        23     1        0.123181   585119.222852
         7        24     1        0.141002   186312.748779
         8        19     1        0.139807   297823.269336
         8        45     1        0.108373   327561.488574
         9        22     1        0.136147   237289.543457
         9        25     1        0.134743   274242.379150
         9        26     1        0.135795   337345.138232
        10        26     1        0.146342   195657.096313
        10        40     1        0.109339   302297.651807
        11        12     1        0.143064   268512.132715
        11        16     1        0.141888   250783.403125
        11        17     1        0.140370   289479.274219
        12        18     1        0.135741   412970.274268
        12        30     1        0.108546   321757.107910
        13        14     1        0.139909   309192.952246
        13        46     1        0.108441   326433.233545
        14        15     1        0.139752   315973.029248
        14        27     1        0.108580   321519.638330
        15        19     1        0.139804   295666.149707
        15        28     1        0.108447   324553.217090
        16        24     1        0.137714   269836.282910
        16        25     1        0.133500   325839.776660
        17        22     1        0.132440   375596.612549
        17        31     1        0.108989   309515.639160
        18        21     1        0.136634   264984.589648
        19        21     1        0.138607   233400.599219
        20        24     1        0.147084   183535.690283
        20        41     1        0.108968   310419.857129
        20        42     1        0.108968   310419.857129
        20        43     1        0.108968   310419.857129
        26        44     1        0.101197   417437.097754

[ angles ]
;       ai        aj        ak funct           theta             cth
         1         2         6     1      112.057350      650.229837
         1         2        34     1      110.599220      486.660342
         1         2        35     1      110.599220      486.660342
         1        10         4     1      109.670731      539.148838
         1        10        26     1      111.413162      594.575027
         1        10        40     1      108.438194      470.541861
         2         1        10     1      110.143417      679.501302
         2         1        32     1      109.782654      502.446362
         2         1        33     1      109.782654      502.446362
         2         6         3     1      112.347824      593.219262
         3         4        10     1      110.143417      679.501302
         3         4        38     1      109.782654      502.446362
         3         4        39     1      109.782654      502.446362
         4         3         6     1      112.057350      650.229837
         4         3        36     1      110.599220      486.660342
         4         3        37     1      110.599220      486.660342
         4        10        26     1      111.413162      594.575027
         4        10        40     1      108.438194      470.541861
         5         8        19     1      117.807541      755.998415
         5         8        45     1      120.667587      419.083022
         5        13        14     1      117.804077      664.110980
         5        13        46     1      120.071594      429.366401
         6         2        34     1      107.737404      465.042190
         6         2        35     1      107.737404      465.042190
         6         3        36     1      107.737404      465.042190
         6         3        37     1      107.737404      465.042190
         7        18        12     1      121.955887      725.179976
         7        18        21     1      116.136047      319.205344
         7        24        16     1      122.902298      565.957632
         7        24        20     1      117.580322      599.849206
         8         5        13     1      122.997391      598.397677
         8         5        29     1      118.175613      548.417915
         8        19        15     1      121.192490      603.040770
         8        19        21     1      119.063660      517.347201
         9        22        17     1      115.954872      932.625577
         9        25        16     1      116.584206      753.082077
         9        26        10     1      124.733902      450.652411
         9        26        44     1      114.010254      481.843533
        10         1        32     1      109.667801      496.043027
        10         1        33     1      109.667801      496.043027
        10         4        38     1      109.667801      496.043027
        10         4        39     1      109.667801      496.043027
        10        26        44     1      118.351364      413.441906
        11        12        18     1      119.957947      512.633466
        11        12        30     1      120.067749      410.568215
        11        16        24     1      119.377609      601.387051
        11        16        25     1      122.348953      733.650316
        11        17        22     1      123.613258      737.001807
        11        17        31     1      119.671646      407.383802
        12        11        16     1      119.790161      689.755154
        12        11        17     1      125.018837      443.693677
        12        18        21     1      121.829666      453.656948
        13         5        29     1      118.921616      547.950330
        13        14        15     1      121.077003      688.071556
        13        14        27     1      119.461731      426.756732
        14        13        46     1      122.199730      427.312802
        14        15        19     1      119.104858      706.201371
        14        15        28     1      121.189232      426.720852
        15        14        27     1      119.482346      423.869985
        15        19        21     1      119.785683      519.354163
        16        11        17     1      115.023621      848.614616
        16        24        20     1      119.145653      531.854578
        18         7        23     1      122.789696      305.963778
        18         7        24     1      115.696030      670.875888
        18        12        30     1      120.045334      431.684819
        18        21        19     1      118.732071      426.959209
        19         8        45     1      121.462326      415.195540
        19        15        28     1      119.754799      429.344375
        22         9        25     1      126.160011      634.095683
        22         9        26     1      116.854393      599.021804
        22        17        31     1      116.349670      436.996283
        23         7        24     1      121.284714      608.542102
        24        16        25     1      118.116966      541.711040
        24        20        41     1      109.003319      486.045600
        24        20        42     1      109.003319      486.045600
        24        20        43     1      109.003319      486.045600
        25         9        26     1      116.440346      534.813882
        26        10        40     1      106.415306      519.306983
        32         1        33     1      107.383133      356.326533
        34         2        35     1      107.873245      341.256574
        36         3        37     1      107.873245      341.256574
        38         4        39     1      107.383141      356.326501
        41        20        42     1      109.918945      341.457392
        41        20        43     1      109.918945      341.457392
        42        20        43     1      109.918945      341.457392

[ dihedrals ] ; propers for gromacs 4.5 or higher, use funct 9
;       ai        aj        ak        al funct           phase               k        pn
         1         2         6         3     9        0.000000        0.656407         1
         1         2         6         3     9      180.000000       -0.958141         2
         1         2         6         3     9        0.000000        0.587773         3
         1         2         6         3     9      180.000000        0.053351         4
         1        10         4         3     9        0.000000        2.989875         1
         1        10         4         3     9      180.000000       -3.284302         2
         1        10         4         3     9        0.000000        0.008029         3
         1        10         4         3     9      180.000000        0.128316         4
         1        10         4        38     9        0.000000       -0.034793         1
         1        10         4        38     9      180.000000        0.064745         2
         1        10         4        38     9        0.000000        0.298914         3
         1        10         4        38     9      180.000000        0.014469         4
         1        10         4        39     9        0.000000       -0.034793         1
         1        10         4        39     9      180.000000        0.064745         2
         1        10         4        39     9        0.000000        0.298914         3
         1        10         4        39     9      180.000000        0.014469         4
         1        10        26         9     9        0.000000       -0.203113         1
         1        10        26         9     9      180.000000       -0.228725         2
         1        10        26         9     9        0.000000        0.538013         3
         1        10        26         9     9      180.000000        0.024242         4
         1        10        26        44     9        0.000000       -0.211311         1
         1        10        26        44     9      180.000000        0.210201         2
         1        10        26        44     9        0.000000        0.038851         3
         1        10        26        44     9      180.000000       -0.020037         4
         2         1        10         4     9        0.000000        2.989875         1
         2         1        10         4     9      180.000000       -3.284302         2
         2         1        10         4     9        0.000000        0.008029         3
         2         1        10         4     9      180.000000        0.128316         4
         2         1        10        26     9        0.000000       -1.913322         1
         2         1        10        26     9      180.000000       -1.584995         2
         2         1        10        26     9        0.000000        0.106704         3
         2         1        10        26     9      180.000000        0.296263         4
         2         1        10        40     9        0.000000       -0.000719         1
         2         1        10        40     9      180.000000       -0.002826         2
         2         1        10        40     9        0.000000        0.168043         3
         2         1        10        40     9      180.000000        0.040671         4
         2         6         3         4     9        0.000000        0.656407         1
         2         6         3         4     9      180.000000       -0.958141         2
         2         6         3         4     9        0.000000        0.587773         3
         2         6         3         4     9      180.000000        0.053351         4
         2         6         3        36     9        0.000000       -0.046698         1
         2         6         3        36     9      180.000000        0.044370         2
         2         6         3        36     9        0.000000        0.473257         3
         2         6         3        36     9      180.000000       -0.000534         4
         2         6         3        37     9        0.000000       -0.046698         1
         2         6         3        37     9      180.000000        0.044370         2
         2         6         3        37     9        0.000000        0.473257         3
         2         6         3        37     9      180.000000       -0.000534         4
         3         4        10        26     9        0.000000       -1.913322         1
         3         4        10        26     9      180.000000       -1.584995         2
         3         4        10        26     9        0.000000        0.106704         3
         3         4        10        26     9      180.000000        0.296263         4
         3         4        10        40     9        0.000000       -0.000719         1
         3         4        10        40     9      180.000000       -0.002826         2
         3         4        10        40     9        0.000000        0.168043         3
         3         4        10        40     9      180.000000        0.040671         4
         3         6         2        34     9        0.000000       -0.046698         1
         3         6         2        34     9      180.000000        0.044371         2
         3         6         2        34     9        0.000000        0.473257         3
         3         6         2        34     9      180.000000       -0.000534         4
         3         6         2        35     9        0.000000       -0.046698         1
         3         6         2        35     9      180.000000        0.044371         2
         3         6         2        35     9        0.000000        0.473257         3
         3         6         2        35     9      180.000000       -0.000534         4
         4        10         1        32     9        0.000000       -0.034793         1
         4        10         1        32     9      180.000000        0.064745         2
         4        10         1        32     9        0.000000        0.298913         3
         4        10         1        32     9      180.000000        0.014470         4
         4        10         1        33     9        0.000000       -0.034793         1
         4        10         1        33     9      180.000000        0.064745         2
         4        10         1        33     9        0.000000        0.298913         3
         4        10         1        33     9      180.000000        0.014470         4
         4        10        26         9     9        0.000000       -0.203113         1
         4        10        26         9     9      180.000000       -0.228725         2
         4        10        26         9     9        0.000000        0.538013         3
         4        10        26         9     9      180.000000        0.024242         4
         4        10        26        44     9        0.000000       -0.211311         1
         4        10        26        44     9      180.000000        0.210201         2
         4        10        26        44     9        0.000000        0.038851         3
         4        10        26        44     9      180.000000       -0.020037         4
         5         8        19        15     9        0.000000       -0.137520         1
         5         8        19        15     9      180.000000       16.750636         2
         5         8        19        15     9        0.000000       -1.131152         3
         5         8        19        15     9      180.000000       -0.199614         4
         5         8        19        21     9        0.000000        0.446270         1
         5         8        19        21     9      180.000000       18.360026         2
         5         8        19        21     9        0.000000        0.579718         3
         5         8        19        21     9      180.000000       -0.425911         4
         5        13        14        15     9        0.000000       -0.066144         1
         5        13        14        15     9      180.000000       18.783595         2
         5        13        14        15     9        0.000000       -1.567650         3
         5        13        14        15     9      180.000000       -0.420836         4
         5        13        14        27     9        0.000000        0.115195         1
         5        13        14        27     9      180.000000       14.747786         2
         5        13        14        27     9        0.000000       -0.670330         3
         5        13        14        27     9      180.000000        0.089557         4
         6         2         1        10     9        0.000000        0.588019         1
         6         2         1        10     9      180.000000       -1.553809         2
         6         2         1        10     9        0.000000        0.318518         3
         6         2         1        10     9      180.000000        0.071837         4
         6         2         1        32     9        0.000000       -0.070257         1
         6         2         1        32     9      180.000000        0.057420         2
         6         2         1        32     9        0.000000        0.194875         3
         6         2         1        32     9      180.000000       -0.007724         4
         6         2         1        33     9        0.000000       -0.070257         1
         6         2         1        33     9      180.000000        0.057420         2
         6         2         1        33     9        0.000000        0.194875         3
         6         2         1        33     9      180.000000       -0.007724         4
         6         3         4        10     9        0.000000        0.588019         1
         6         3         4        10     9      180.000000       -1.553809         2
         6         3         4        10     9        0.000000        0.318518         3
         6         3         4        10     9      180.000000        0.071837         4
         6         3         4        38     9        0.000000       -0.070257         1
         6         3         4        38     9      180.000000        0.057420         2
         6         3         4        38     9        0.000000        0.194875         3
         6         3         4        38     9      180.000000       -0.007724         4
         6         3         4        39     9        0.000000       -0.070257         1
         6         3         4        39     9      180.000000        0.057420         2
         6         3         4        39     9        0.000000        0.194875         3
         6         3         4        39     9      180.000000       -0.007724         4
         7        18        12        11     9        0.000000       -0.263484         1
         7        18        12        11     9      180.000000       19.949181         2
         7        18        12        11     9        0.000000       -0.689452         3
         7        18        12        11     9      180.000000       -0.879131         4
         7        18        12        30     9        0.000000       -0.036612         1
         7        18        12        30     9      180.000000       15.140292         2
         7        18        12        30     9        0.000000       -0.105513         3
         7        18        12        30     9      180.000000        0.081295         4
         7        18        21        19     9        0.000000        1.522952         1
         7        18        21        19     9      180.000000        2.752817         2
         7        18        21        19     9        0.000000        1.450785         3
         7        18        21        19     9      180.000000       -0.222965         4
         7        24        16        11     9        0.000000       -0.733726         1
         7        24        16        11     9      180.000000        5.946970         2
         7        24        16        11     9        0.000000       -0.505434         3
         7        24        16        11     9      180.000000        0.176990         4
         7        24        16        25     9        0.000000        0.444341         1
         7        24        16        25     9      180.000000        7.793681         2
         7        24        16        25     9        0.000000        0.430302         3
         7        24        16        25     9      180.000000       -0.208931         4
         7        24        20        41     9        0.000000        0.022638         1
         7        24        20        41     9      180.000000        0.065320         2
         7        24        20        41     9        0.000000       -0.063790         3
         7        24        20        41     9      180.000000        0.031607         4
         7        24        20        42     9        0.000000        0.022638         1
         7        24        20        42     9      180.000000        0.065320         2
         7        24        20        42     9        0.000000       -0.063790         3
         7        24        20        42     9      180.000000        0.031607         4
         7        24        20        43     9        0.000000        0.022638         1
         7        24        20        43     9      180.000000        0.065320         2
         7        24        20        43     9        0.000000       -0.063790         3
         7        24        20        43     9      180.000000        0.031607         4
         8         5        13        14     9        0.000000       -0.049761         1
         8         5        13        14     9      180.000000       17.341485         2
         8         5        13        14     9        0.000000       -1.204615         3
         8         5        13        14     9      180.000000       -0.346791         4
         8         5        13        46     9        0.000000        0.110643         1
         8         5        13        46     9      180.000000       12.991354         2
         8         5        13        46     9        0.000000       -0.524812         3
         8         5        13        46     9      180.000000        0.132045         4
         8        19        15        14     9        0.000000        0.012393         1
         8        19        15        14     9      180.000000       16.859755         2
         8        19        15        14     9        0.000000       -1.032649         3
         8        19        15        14     9      180.000000       -0.239540         4
         8        19        15        28     9        0.000000        0.205851         1
         8        19        15        28     9      180.000000       12.944333         2
         8        19        15        28     9        0.000000       -0.507331         3
         8        19        15        28     9      180.000000        0.183881         4
         8        19        21        18     9        0.000000       -0.069560         1
         8        19        21        18     9      180.000000        4.037099         2
         8        19        21        18     9        0.000000       -0.145596         3
         8        19        21        18     9      180.000000        0.097306         4
         9        22        17        11     9        0.000000       -0.315688         1
         9        22        17        11     9      180.000000       20.909885         2
         9        22        17        11     9        0.000000       -1.463467         3
         9        22        17        11     9      180.000000       -0.227042         4
         9        22        17        31     9        0.000000        0.357883         1
         9        22        17        31     9      180.000000       19.018619         2
         9        22        17        31     9        0.000000       -0.094002         3
         9        22        17        31     9      180.000000       -0.241065         4
         9        25        16        11     9        0.000000       -0.256988         1
         9        25        16        11     9      180.000000       12.342726         2
         9        25        16        11     9        0.000000       -0.532318         3
         9        25        16        11     9      180.000000       -0.015120         4
         9        25        16        24     9        0.000000       -0.268198         1
         9        25        16        24     9      180.000000       16.435080         2
         9        25        16        24     9        0.000000        0.522123         3
         9        25        16        24     9      180.000000       -0.468772         4
         9        26        10        40     9        0.000000       -0.159174         1
         9        26        10        40     9      180.000000        0.215924         2
         9        26        10        40     9        0.000000        0.641603         3
         9        26        10        40     9      180.000000        0.037921         4
        10         1         2        34     9        0.000000       -0.016397         1
        10         1         2        34     9      180.000000        0.056039         2
        10         1         2        34     9        0.000000        0.282909         3
        10         1         2        34     9      180.000000        0.009404         4
        10         1         2        35     9        0.000000       -0.016397         1
        10         1         2        35     9      180.000000        0.056039         2
        10         1         2        35     9        0.000000        0.282909         3
        10         1         2        35     9      180.000000        0.009404         4
        10         4         3        36     9        0.000000       -0.016397         1
        10         4         3        36     9      180.000000        0.056040         2
        10         4         3        36     9        0.000000        0.282910         3
        10         4         3        36     9      180.000000        0.009404         4
        10         4         3        37     9        0.000000       -0.016397         1
        10         4         3        37     9      180.000000        0.056040         2
        10         4         3        37     9        0.000000        0.282910         3
        10         4         3        37     9      180.000000        0.009404         4
        10        26         9        22     9        0.000000        0.387695         1
        10        26         9        22     9      180.000000        7.925193         2
        10        26         9        22     9        0.000000        0.630612         3
        10        26         9        22     9      180.000000       -0.895939         4
        10        26         9        25     9        0.000000       -0.013548         1
        10        26         9        25     9      180.000000        8.370135         2
        10        26         9        25     9        0.000000        0.320738         3
        10        26         9        25     9      180.000000       -0.721346         4
        11        12        18        21     9        0.000000       -0.381491         1
        11        12        18        21     9      180.000000       27.056795         2
        11        12        18        21     9        0.000000       -0.083625         3
        11        12        18        21     9      180.000000       -1.511240         4
        11        16        24        20     9        0.000000       -0.020294         1
        11        16        24        20     9      180.000000        8.784534         2
        11        16        24        20     9        0.000000       -0.090448         3
        11        16        24        20     9      180.000000        0.170647         4
        12        11        16        24     9        0.000000        0.257458         1
        12        11        16        24     9      180.000000       13.068944         2
        12        11        16        24     9        0.000000       -0.102869         3
        12        11        16        24     9      180.000000       -0.472411         4
        12        11        16        25     9        0.000000        0.224114         1
        12        11        16        25     9      180.000000       12.213707         2
        12        11        16        25     9        0.000000        0.125591         3
        12        11        16        25     9      180.000000       -0.327032         4
        12        11        17        22     9        0.000000        0.059530         1
        12        11        17        22     9      180.000000       14.043683         2
        12        11        17        22     9        0.000000        0.087186         3
        12        11        17        22     9      180.000000       -0.510607         4
        12        11        17        31     9        0.000000        0.132621         1
        12        11        17        31     9      180.000000       12.128396         2
        12        11        17        31     9        0.000000        0.200812         3
        12        11        17        31     9      180.000000       -0.110094         4
        12        18         7        23     9        0.000000        0.602131         1
        12        18         7        23     9      180.000000        4.959079         2
        12        18         7        23     9        0.000000       -0.026627         3
        12        18         7        23     9      180.000000       -0.355727         4
        12        18         7        24     9        0.000000        1.808926         1
        12        18         7        24     9      180.000000        1.994409         2
        12        18         7        24     9        0.000000        0.165657         3
        12        18         7        24     9      180.000000        0.005846         4
        12        18        21        19     9        0.000000       -0.144225         1
        12        18        21        19     9      180.000000        4.313537         2
        12        18        21        19     9        0.000000       -1.879218         3
        12        18        21        19     9      180.000000        0.230050         4
        13         5         8        19     9        0.000000       -0.062646         1
        13         5         8        19     9      180.000000       17.112624         2
        13         5         8        19     9        0.000000       -1.262136         3
        13         5         8        19     9      180.000000       -0.381274         4
        13         5         8        45     9        0.000000        0.179290         1
        13         5         8        45     9      180.000000       12.537825         2
        13         5         8        45     9        0.000000       -0.509929         3
        13         5         8        45     9      180.000000        0.182865         4
        13        14        15        19     9        0.000000       -0.091451         1
        13        14        15        19     9      180.000000       18.838965         2
        13        14        15        19     9        0.000000       -1.559688         3
        13        14        15        19     9      180.000000       -0.463657         4
        13        14        15        28     9        0.000000        0.125219         1
        13        14        15        28     9      180.000000       14.379257         2
        13        14        15        28     9        0.000000       -0.656077         3
        13        14        15        28     9      180.000000        0.141216         4
        14        13         5        29     9        0.000000        0.567594         1
        14        13         5        29     9      180.000000       23.621110         2
        14        13         5        29     9        0.000000        0.510584         3
        14        13         5        29     9      180.000000       -0.702643         4
        14        15        19        21     9        0.000000        0.638187         1
        14        15        19        21     9      180.000000       18.458983         2
        14        15        19        21     9        0.000000        0.489664         3
        14        15        19        21     9      180.000000       -0.304708         4
        15        14        13        46     9        0.000000        0.128382         1
        15        14        13        46     9      180.000000       14.322737         2
        15        14        13        46     9        0.000000       -0.737056         3
        15        14        13        46     9      180.000000        0.135018         4
        15        19         8        45     9        0.000000        0.133386         1
        15        19         8        45     9      180.000000       12.487002         2
        15        19         8        45     9        0.000000       -0.549114         3
        15        19         8        45     9      180.000000        0.226280         4
        15        19        21        18     9        0.000000        0.041404         1
        15        19        21        18     9      180.000000        4.038351         2
        15        19        21        18     9        0.000000       -0.139155         3
        15        19        21        18     9      180.000000        0.118102         4
        16        11        12        18     9        0.000000       -0.844656         1
        16        11        12        18     9      180.000000       11.970578         2
        16        11        12        18     9        0.000000       -1.629453         3
        16        11        12        18     9      180.000000       -0.274568         4
        16        11        12        30     9        0.000000        0.156704         1
        16        11        12        30     9      180.000000        8.220558         2
        16        11        12        30     9        0.000000       -0.341729         3
        16        11        12        30     9      180.000000       -0.142661         4
        16        11        17        22     9        0.000000        0.166299         1
        16        11        17        22     9      180.000000       14.579570         2
        16        11        17        22     9        0.000000       -0.219544         3
        16        11        17        22     9      180.000000       -0.409876         4
        16        11        17        31     9        0.000000        0.221468         1
        16        11        17        31     9      180.000000       12.179784         2
        16        11        17        31     9        0.000000       -0.249136         3
        16        11        17        31     9      180.000000       -0.223888         4
        16        24         7        18     9        0.000000       -1.731791         1
        16        24         7        18     9      180.000000        4.358590         2
        16        24         7        18     9        0.000000        0.018791         3
        16        24         7        18     9      180.000000        0.121844         4
        16        24         7        23     9        0.000000        0.389893         1
        16        24         7        23     9      180.000000       10.254704         2
        16        24         7        23     9        0.000000       -0.621592         3
        16        24         7        23     9      180.000000       -0.268591         4
        16        24        20        41     9        0.000000       -0.080403         1
        16        24        20        41     9      180.000000        0.031039         2
        16        24        20        41     9        0.000000       -0.111292         3
        16        24        20        41     9      180.000000        0.045004         4
        16        24        20        42     9        0.000000       -0.080403         1
        16        24        20        42     9      180.000000        0.031039         2
        16        24        20        42     9        0.000000       -0.111292         3
        16        24        20        42     9      180.000000        0.045004         4
        16        24        20        43     9        0.000000       -0.080403         1
        16        24        20        43     9      180.000000        0.031039         2
        16        24        20        43     9        0.000000       -0.111292         3
        16        24        20        43     9      180.000000        0.045004         4
        16        25         9        22     9        0.000000        0.800267         1
        16        25         9        22     9      180.000000        9.928387         2
        16        25         9        22     9        0.000000        0.587508         3
        16        25         9        22     9      180.000000       -0.404742         4
        16        25         9        26     9        0.000000        0.725271         1
        16        25         9        26     9      180.000000       16.074418         2
        16        25         9        26     9        0.000000        0.250133         3
        16        25         9        26     9      180.000000       -0.995290         4
        17        11        12        18     9        0.000000       -0.663294         1
        17        11        12        18     9      180.000000        8.706476         2
        17        11        12        18     9        0.000000       -0.829011         3
        17        11        12        18     9      180.000000        0.033141         4
        17        11        12        30     9        0.000000       -0.810136         1
        17        11        12        30     9      180.000000        4.826038         2
        17        11        12        30     9        0.000000       -0.379630         3
        17        11        12        30     9      180.000000       -0.055712         4
        17        11        16        24     9        0.000000       -0.381660         1
        17        11        16        24     9      180.000000       11.829440         2
        17        11        16        24     9        0.000000       -0.321284         3
        17        11        16        24     9      180.000000       -0.346175         4
        17        11        16        25     9        0.000000       -0.022521         1
        17        11        16        25     9      180.000000       11.108630         2
        17        11        16        25     9        0.000000        0.149539         3
        17        11        16        25     9      180.000000       -0.272534         4
        17        22         9        25     9        0.000000        0.675522         1
        17        22         9        25     9      180.000000        9.660827         2
        17        22         9        25     9        0.000000        0.779809         3
        17        22         9        25     9      180.000000       -0.509161         4
        17        22         9        26     9        0.000000        1.258938         1
        17        22         9        26     9      180.000000       15.073809         2
        17        22         9        26     9        0.000000        0.447281         3
        17        22         9        26     9      180.000000       -0.788275         4
        18         7        24        20     9        0.000000        0.468490         1
        18         7        24        20     9      180.000000        9.072287         2
        18         7        24        20     9        0.000000        0.306788         3
        18         7        24        20     9      180.000000        0.002096         4
        19         8         5        29     9        0.000000        0.416708         1
        19         8         5        29     9      180.000000       23.140525         2
        19         8         5        29     9        0.000000        0.623040         3
        19         8         5        29     9      180.000000       -0.914093         4
        19        15        14        27     9        0.000000        0.066823         1
        19        15        14        27     9      180.000000       14.672120         2
        19        15        14        27     9        0.000000       -0.575674         3
        19        15        14        27     9      180.000000        0.074779         4
        20        24         7        23     9        0.000000       -0.626933         1
        20        24         7        23     9      180.000000       11.384754         2
        20        24         7        23     9        0.000000       -1.173841         3
        20        24         7        23     9      180.000000        0.509300         4
        20        24        16        25     9        0.000000       -0.851046         1
        20        24        16        25     9      180.000000       10.023888         2
        20        24        16        25     9        0.000000       -0.110559         3
        20        24        16        25     9      180.000000        0.221242         4
        21        18         7        23     9        0.000000       -1.979408         1
        21        18         7        23     9      180.000000       10.599436         2
        21        18         7        23     9        0.000000       -0.450075         3
        21        18         7        23     9      180.000000       -0.272935         4
        21        18         7        24     9        0.000000        0.057919         1
        21        18         7        24     9      180.000000        6.891419         2
        21        18         7        24     9        0.000000        0.349747         3
        21        18         7        24     9      180.000000        0.006652         4
        21        18        12        30     9        0.000000        0.119461         1
        21        18        12        30     9      180.000000       19.346862         2
        21        18        12        30     9        0.000000        0.144848         3
        21        18        12        30     9      180.000000       -0.132196         4
        21        19         8        45     9        0.000000        0.278492         1
        21        19         8        45     9      180.000000       13.702142         2
        21        19         8        45     9        0.000000        0.066336         3
        21        19         8        45     9      180.000000        0.327555         4
        21        19        15        28     9        0.000000        0.155510         1
        21        19        15        28     9      180.000000       14.075155         2
        21        19        15        28     9        0.000000        0.093437         3
        21        19        15        28     9      180.000000        0.291743         4
        22         9        26        44     9        0.000000       -0.519507         1
        22         9        26        44     9      180.000000       10.556826         2
        22         9        26        44     9        0.000000       -0.449027         3
        22         9        26        44     9      180.000000       -0.622276         4
        25         9        26        44     9        0.000000        0.761521         1
        25         9        26        44     9      180.000000       10.627039         2
        25         9        26        44     9        0.000000       -0.502671         3
        25         9        26        44     9      180.000000       -0.486246         4
        26        10         1        32     9        0.000000        0.103752         1
        26        10         1        32     9      180.000000        0.093489         2
        26        10         1        32     9        0.000000        0.307978         3
        26        10         1        32     9      180.000000       -0.046607         4
        26        10         1        33     9        0.000000        0.103752         1
        26        10         1        33     9      180.000000        0.093489         2
        26        10         1        33     9        0.000000        0.307978         3
        26        10         1        33     9      180.000000       -0.046607         4
        26        10         4        38     9        0.000000        0.103751         1
        26        10         4        38     9      180.000000        0.093489         2
        26        10         4        38     9        0.000000        0.307978         3
        26        10         4        38     9      180.000000       -0.046607         4
        26        10         4        39     9        0.000000        0.103751         1
        26        10         4        39     9      180.000000        0.093489         2
        26        10         4        39     9        0.000000        0.307978         3
        26        10         4        39     9      180.000000       -0.046607         4
        27        14        13        46     9        0.000000       -0.122075         1
        27        14        13        46     9      180.000000       11.504974         2
        27        14        13        46     9        0.000000       -0.603834         3
        27        14        13        46     9      180.000000        0.219015         4
        27        14        15        28     9        0.000000       -0.120410         1
        27        14        15        28     9      180.000000       11.953744         2
        27        14        15        28     9        0.000000       -0.670412         3
        27        14        15        28     9      180.000000        0.248893         4
        29         5         8        45     9        0.000000        0.323132         1
        29         5         8        45     9      180.000000       15.712766         2
        29         5         8        45     9        0.000000        0.285035         3
        29         5         8        45     9      180.000000        0.159801         4
        29         5        13        46     9        0.000000        0.263054         1
        29         5        13        46     9      180.000000       15.896382         2
        29         5        13        46     9        0.000000        0.327813         3
        29         5        13        46     9      180.000000        0.147615         4
        32         1         2        34     9        0.000000       -0.014072         1
        32         1         2        34     9      180.000000       -0.013164         2
        32         1         2        34     9        0.000000        0.310609         3
        32         1         2        34     9      180.000000        0.009990         4
        32         1         2        35     9        0.000000       -0.014072         1
        32         1         2        35     9      180.000000       -0.013164         2
        32         1         2        35     9        0.000000        0.310609         3
        32         1         2        35     9      180.000000        0.009990         4
        32         1        10        40     9        0.000000       -0.005225         1
        32         1        10        40     9      180.000000        0.012814         2
        32         1        10        40     9        0.000000        0.279744         3
        32         1        10        40     9      180.000000        0.088945         4
        33         1         2        34     9        0.000000       -0.014072         1
        33         1         2        34     9      180.000000       -0.013164         2
        33         1         2        34     9        0.000000        0.310609         3
        33         1         2        34     9      180.000000        0.009990         4
        33         1         2        35     9        0.000000       -0.014072         1
        33         1         2        35     9      180.000000       -0.013164         2
        33         1         2        35     9        0.000000        0.310609         3
        33         1         2        35     9      180.000000        0.009990         4
        33         1        10        40     9        0.000000       -0.005225         1
        33         1        10        40     9      180.000000        0.012814         2
        33         1        10        40     9        0.000000        0.279744         3
        33         1        10        40     9      180.000000        0.088945         4
        36         3         4        38     9        0.000000       -0.014072         1
        36         3         4        38     9      180.000000       -0.013164         2
        36         3         4        38     9        0.000000        0.310609         3
        36         3         4        38     9      180.000000        0.009991         4
        36         3         4        39     9        0.000000       -0.014072         1
        36         3         4        39     9      180.000000       -0.013164         2
        36         3         4        39     9        0.000000        0.310609         3
        36         3         4        39     9      180.000000        0.009991         4
        37         3         4        38     9        0.000000       -0.014072         1
        37         3         4        38     9      180.000000       -0.013164         2
        37         3         4        38     9        0.000000        0.310609         3
        37         3         4        38     9      180.000000        0.009991         4
        37         3         4        39     9        0.000000       -0.014072         1
        37         3         4        39     9      180.000000       -0.013164         2
        37         3         4        39     9        0.000000        0.310609         3
        37         3         4        39     9      180.000000        0.009991         4
        38         4        10        40     9        0.000000       -0.005226         1
        38         4        10        40     9      180.000000        0.012815         2
        38         4        10        40     9        0.000000        0.279744         3
        38         4        10        40     9      180.000000        0.088945         4
        39         4        10        40     9        0.000000       -0.005226         1
        39         4        10        40     9      180.000000        0.012815         2
        39         4        10        40     9        0.000000        0.279744         3
        39         4        10        40     9      180.000000        0.088945         4
        40        10        26        44     9        0.000000       -0.695821         1
        40        10        26        44     9      180.000000       -0.162734         2
        40        10        26        44     9        0.000000        0.223778         3
        40        10        26        44     9      180.000000        0.050708         4

[ dihedrals ] ; impropers
;       ai        aj        ak        al funct           phase               k        pn
         5         8        13        29     4      180.000000        0.885561         2
         5        13        29         8     4      180.000000        0.885561         2
         5        29         8        13     4      180.000000        0.885561         2
         7        18        23        24     4      180.000000       21.371738         2
         7        23        24        18     4      180.000000       21.371738         2
         7        24        18        23     4      180.000000       21.371738         2
         9        22        25        26     4      180.000000       27.893333         2
         9        25        26        22     4      180.000000       27.893333         2
         9        26        22        25     4      180.000000       27.893333         2
        12        11        18        30     4      180.000000        2.675127         2
        12        18        30        11     4      180.000000        2.675127         2
        12        30        11        18     4      180.000000        2.675127         2
        16        11        24        25     4      180.000000       14.360234         2
        16        24        25        11     4      180.000000       14.360234         2
        16        25        11        24     4      180.000000       14.360234         2
        17        11        22        31     4      180.000000       13.789488         2
        17        22        31        11     4      180.000000       13.789488         2
        17        31        11        22     4      180.000000       13.789488         2

[ pairs ]
;       ai        aj funct
         1         3     1
         1         9     1
         1        38     1
         1        39     1
         1        44     1
         2         4     1
         2        26     1
         2        36     1
         2        37     1
         2        40     1
         3        26     1
         3        34     1
         3        35     1
         3        40     1
         4         9     1
         4        32     1
         4        33     1
         4        44     1
         5        15     1
         5        21     1
         5        27     1
         6        10     1
         6        32     1
         6        33     1
         6        38     1
         6        39     1
         7        11     1
         7        19     1
         7        25     1
         7        30     1
         7        41     1
         7        42     1
         7        43     1
         8        14     1
         8        18     1
         8        28     1
         8        46     1
         9        11     1
         9        24     1
         9        31     1
         9        40     1
        10        22     1
        10        25     1
        10        34     1
        10        35     1
        10        36     1
        10        37     1
        11        20     1
        11        21     1
        12        19     1
        12        22     1
        12        23     1
        12        24     1
        12        25     1
        12        31     1
        13        19     1
        13        28     1
        13        45     1
        14        21     1
        14        29     1
        15        18     1
        15        45     1
        15        46     1
        16        18     1
        16        22     1
        16        23     1
        16        26     1
        16        30     1
        16        31     1
        16        41     1
        16        42     1
        16        43     1
        17        18     1
        17        24     1
        17        25     1
        17        26     1
        17        30     1
        18        20     1
        19        27     1
        19        29     1
        20        23     1
        20        25     1
        21        23     1
        21        24     1
        21        28     1
        21        30     1
        21        45     1
        22        44     1
        25        44     1
        26        32     1
        26        33     1
        26        38     1
        26        39     1
        27        28     1
        27        46     1
        29        45     1
        29        46     1
        32        34     1
        32        35     1
        32        40     1
        33        34     1
        33        35     1
        33        40     1
        36        38     1
        36        39     1
        37        38     1
        37        39     1
        38        40     1
        39        40     1
        40        44     1
