; ITP file created by ByteFF-ML, 2026-02-21 08:22:09.751228

[ atomtypes ]
;name           bonded.type        at.num        mass        charge   ptype           sigma         epsilon
 c0bf                                   6      0.0000       0.00000       A     3.39799e-01     4.51865e-01
 c1bf                                   6      0.0000       0.00000       A     3.39760e-01     4.51932e-01
 c2bf                                   6      0.0000       0.00000       A     3.39760e-01     4.51932e-01
 c3bf                                   6      0.0000       0.00000       A     3.39799e-01     4.51865e-01
 c4bf                                   6      0.0000       0.00000       A     3.31468e-01     4.12718e-01
 c5bf                                   6      0.0000       0.00000       A     3.39802e-01     4.50363e-01
 c6bf                                   6      0.0000       0.00000       A     3.31426e-01     4.13955e-01
 c7bf                                   6      0.0000       0.00000       A     3.31482e-01     4.13404e-01
 c8bf                                   6      0.0000       0.00000       A     3.31542e-01     4.14110e-01
 c9bf                                   6      0.0000       0.00000       A     3.39776e-01     4.52666e-01
 c10bf                                  6      0.0000       0.00000       A     3.31327e-01     4.13299e-01
 c11bf                                  6      0.0000       0.00000       A     3.31646e-01     4.12777e-01
 c12bf                                  6      0.0000       0.00000       A     3.31488e-01     4.13497e-01
 c13bf                                  6      0.0000       0.00000       A     3.31494e-01     4.12507e-01
 c14bf                                  6      0.0000       0.00000       A     3.31504e-01     4.12314e-01
 c15bf                                  6      0.0000       0.00000       A     3.31345e-01     4.13845e-01
 c16bf                                  6      0.0000       0.00000       A     3.31262e-01     4.14236e-01
 c17bf                                  6      0.0000       0.00000       A     3.31255e-01     4.17977e-01
 c18bf                                  6      0.0000       0.00000       A     3.31474e-01     4.12750e-01
 c19bf                                  6      0.0000       0.00000       A     3.39751e-01     4.51327e-01
 f20bf                                  9      0.0000       0.00000       A     3.03295e-01     3.47905e-01
 f21bf                                  9      0.0000       0.00000       A     3.03414e-01     3.47611e-01
 o22bf                                  8      0.0000       0.00000       A     3.16224e-01     3.10258e-01
 n23bf                                  7      0.0000       0.00000       A     3.38488e-01     3.93278e-01
 o24bf                                  8      0.0000       0.00000       A     3.04735e-01     6.10225e-01
 n25bf                                  7      0.0000       0.00000       A     3.18016e-01     6.83025e-01
 n26bf                                  7      0.0000       0.00000       A     3.38471e-01     3.92089e-01
 n27bf                                  7      0.0000       0.00000       A     3.27895e-01     6.47208e-01
 h28bf                                  1      0.0000       0.00000       A     2.62547e-01     6.71514e-02
 h29bf                                  1      0.0000       0.00000       A     2.62373e-01     6.68945e-02
 h30bf                                  1      0.0000       0.00000       A     2.62520e-01     6.71642e-02
 h31bf                                  1      0.0000       0.00000       A     2.62452e-01     6.74148e-02
 h32bf                                  1      0.0000       0.00000       A     2.53572e-01     6.74323e-02
 h33bf                                  1      0.0000       0.00000       A     2.59751e-01     8.62883e-02
 h34bf                                  1      0.0000       0.00000       A     2.59751e-01     8.62883e-02
 h35bf                                  1      0.0000       0.00000       A     2.59907e-01     8.67671e-02
 h36bf                                  1      0.0000       0.00000       A     2.59907e-01     8.67671e-02
 h37bf                                  1      0.0000       0.00000       A     2.59907e-01     8.67671e-02
 h38bf                                  1      0.0000       0.00000       A     2.59907e-01     8.67671e-02
 h39bf                                  1      0.0000       0.00000       A     2.59751e-01     8.62883e-02
 h40bf                                  1      0.0000       0.00000       A     2.59751e-01     8.62883e-02
 h41bf                                  1      0.0000       0.00000       A     2.42366e-01     8.57472e-02
 h42bf                                  1      0.0000       0.00000       A     2.42068e-01     8.71789e-02
 h43bf                                  1      0.0000       0.00000       A     2.42068e-01     8.71789e-02
 h44bf                                  1      0.0000       0.00000       A     2.42068e-01     8.71789e-02
 h45bf                                  1      0.0000       0.00000       A     1.10329e-01     4.16526e-02
 h46bf                                  1      0.0000       0.00000       A     2.42057e-01     8.79785e-02
 o47bf                                  8      0.0000       0.00000       A     3.24367e-01     3.87333e-01
 h48bf                                  1      0.0000       0.00000       A     5.37302e-02     1.97673e-02

[ moleculetype ]
;name             nrexcl
 2ff                   3

[ atoms ]
;       nr            type      resi   res      atom      cgnr      charge          mass ; qtot
         1            c0bf         1   UNL        c0         1    -0.08617       12.0110 ; qtot   -0.086
         2            c1bf         1   UNL        c1         2    -0.09438       12.0110 ; qtot   -0.181
         3            c2bf         1   UNL        c2         3    -0.09438       12.0110 ; qtot   -0.275
         4            c3bf         1   UNL        c3         4    -0.08617       12.0110 ; qtot   -0.361
         5            c4bf         1   UNL        c4         5    -0.17396       12.0110 ; qtot   -0.535
         6            c5bf         1   UNL        c5         6     0.16627       12.0110 ; qtot   -0.369
         7            c6bf         1   UNL        c6         7     0.56377       12.0110 ; qtot    0.195
         8            c7bf         1   UNL        c7         8     0.17941       12.0110 ; qtot    0.374
         9            c8bf         1   UNL        c8         9     0.41157       12.0110 ; qtot    0.786
        10            c9bf         1   UNL        c9        10     0.23701       12.0110 ; qtot    1.023
        11           c10bf         1   UNL       c10        11    -0.27669       12.0110 ; qtot    0.746
        12           c11bf         1   UNL       c11        12    -0.09552       12.0110 ; qtot    0.651
        13           c12bf         1   UNL       c12        13     0.18085       12.0110 ; qtot    0.832
        14           c13bf         1   UNL       c13        14    -0.14500       12.0110 ; qtot    0.687
        15           c14bf         1   UNL       c14        15    -0.07757       12.0110 ; qtot    0.609
        16           c15bf         1   UNL       c15        16     0.30604       12.0110 ; qtot    0.915
        17           c16bf         1   UNL       c16        17     0.20417       12.0110 ; qtot    1.119
        18           c17bf         1   UNL       c17        18     0.00731       12.0110 ; qtot    1.127
        19           c18bf         1   UNL       c18        19     0.05605       12.0110 ; qtot    1.183
        20           c19bf         1   UNL       c19        20     0.08123       12.0110 ; qtot    1.264
        21           f20bf         1   UNL       f20        21    -0.16069       18.9980 ; qtot    1.103
        22           f21bf         1   UNL       f21        22    -0.17407       18.9980 ; qtot    0.929
        23           o22bf         1   UNL       o22        23    -0.21226       15.9990 ; qtot    0.717
        24           n23bf         1   UNL       n23        24    -0.25003       14.0070 ; qtot    0.467
        25           o24bf         1   UNL       o24        25    -0.53096       15.9990 ; qtot   -0.064
        26           n25bf         1   UNL       n25        26    -0.36669       14.0070 ; qtot   -0.431
        27           n26bf         1   UNL       n26        27    -0.30579       14.0070 ; qtot   -0.737
        28           n27bf         1   UNL       n27        28    -0.90403       14.0070 ; qtot   -1.641
        29           h28bf         1   UNL       h28        29     0.14202        1.0080 ; qtot   -1.499
        30           h29bf         1   UNL       h29        30     0.14072        1.0080 ; qtot   -1.358
        31           h30bf         1   UNL       h30        31     0.15735        1.0080 ; qtot   -1.201
        32           h31bf         1   UNL       h31        32     0.20692        1.0080 ; qtot   -0.994
        33           h32bf         1   UNL       h32        33     0.02850        1.0080 ; qtot   -0.965
        34           h33bf         1   UNL       h33        34     0.04942        1.0080 ; qtot   -0.916
        35           h34bf         1   UNL       h34        35     0.04942        1.0080 ; qtot   -0.866
        36           h35bf         1   UNL       h35        36     0.05084        1.0080 ; qtot   -0.815
        37           h36bf         1   UNL       h36        37     0.05084        1.0080 ; qtot   -0.765
        38           h37bf         1   UNL       h37        38     0.05084        1.0080 ; qtot   -0.714
        39           h38bf         1   UNL       h38        39     0.05084        1.0080 ; qtot   -0.663
        40           h39bf         1   UNL       h39        40     0.04942        1.0080 ; qtot   -0.614
        41           h40bf         1   UNL       h40        41     0.04942        1.0080 ; qtot   -0.564
        42           h41bf         1   UNL       h41        42     0.06455        1.0080 ; qtot   -0.500
        43           h42bf         1   UNL       h42        43     0.06198        1.0080 ; qtot   -0.438
        44           h43bf         1   UNL       h43        44     0.06198        1.0080 ; qtot   -0.376
        45           h44bf         1   UNL       h44        45     0.06198        1.0080 ; qtot   -0.314
        46           h45bf         1   UNL       h45        46     0.49486        1.0080 ; qtot    0.181
        47           h46bf         1   UNL       h46        47     0.04340        1.0080 ; qtot    0.225
        48           o47bf         1   UNL       o47        48    -0.66646       15.9990 ; qtot   -0.442
        49           h48bf         1   UNL       h48        49     0.44184        1.0080 ; qtot   -0.000

[ bonds ]
;       ai        aj funct               r               k
         1         2     1        0.153687   181690.915039
         1        10     1        0.154069   172463.438086
         1        34     1        0.109514   295829.817041
         1        35     1        0.109514   295829.817041
         2         6     1        0.153480   177433.138330
         2        36     1        0.109529   295597.991162
         2        37     1        0.109529   295597.991162
         3         4     1        0.153687   181690.915039
         3         6     1        0.153480   177433.138330
         3        38     1        0.109529   295597.991162
         3        39     1        0.109529   295597.991162
         4        10     1        0.154069   172463.438086
         4        40     1        0.109514   295829.817041
         4        41     1        0.109514   295829.817041
         5         8     1        0.139038   316524.477588
         5        13     1        0.139274   306854.774512
         5        31     1        0.108387   329224.337451
         6        47     1        0.109832   287913.951562
         6        48     1        0.143859   193419.943384
         7        18     1        0.147699   176240.708545
         7        25     1        0.123181   585119.222852
         7        26     1        0.141002   186312.748779
         8        19     1        0.139881   278838.982227
         8        21     1        0.134995   302917.054395
         9        24     1        0.136147   237289.543457
         9        27     1        0.134743   274242.379150
         9        28     1        0.135764   338006.447217
        10        28     1        0.146446   193746.167187
        10        42     1        0.109366   300844.769043
        11        12     1        0.143064   268512.132715
        11        16     1        0.141888   250783.403125
        11        17     1        0.140370   289479.274219
        12        18     1        0.135694   413732.097314
        12        32     1        0.108546   321757.107910
        13        14     1        0.139128   306394.902246
        13        22     1        0.135607   292150.813379
        14        15     1        0.139766   317517.437012
        14        29     1        0.108444   326597.718066
        15        19     1        0.139462   301245.293066
        15        30     1        0.108442   325811.328320
        16        26     1        0.137714   269836.257373
        16        27     1        0.133500   325839.776660
        17        24     1        0.132440   375596.612549
        17        33     1        0.108989   309515.639160
        18        23     1        0.136853   261929.227734
        19        23     1        0.138211   245996.599658
        20        26     1        0.147084   183535.677515
        20        43     1        0.108968   310419.857129
        20        44     1        0.108968   310419.857129
        20        45     1        0.108968   310419.857129
        28        46     1        0.101195   417276.929004
        48        49     1        0.097035   469094.941602

[ angles ]
;       ai        aj        ak funct           theta             cth
         1         2         6     1      111.684006      604.372084
         1         2        36     1      110.093834      513.299474
         1         2        37     1      110.093834      513.299474
         1        10         4     1      110.749573      520.762247
         1        10        28     1      111.187927      596.411464
         1        10        42     1      108.402733      474.406871
         2         1        10     1      111.422287      609.900868
         2         1        34     1      109.950211      513.726294
         2         1        35     1      109.950211      513.726294
         2         6         3     1      110.911255      546.542278
         2         6        47     1      109.029274      478.629719
         2         6        48     1      110.202957      661.779697
         3         4        10     1      111.422287      609.900868
         3         4        40     1      109.950211      513.726294
         3         4        41     1      109.950211      513.726294
         3         6        47     1      109.029274      478.629719
         3         6        48     1      110.202957      661.779697
         4         3         6     1      111.684006      604.372084
         4         3        38     1      110.093834      513.299474
         4         3        39     1      110.093834      513.299474
         4        10        28     1      111.187927      596.411464
         4        10        42     1      108.402733      474.406871
         5         8        19     1      121.913330      589.890372
         5         8        21     1      119.021118      546.594501
         5        13        14     1      122.381203      586.088790
         5        13        22     1      118.423096      577.916724
         6         2        36     1      108.968994      495.235735
         6         2        37     1      108.968994      495.235735
         6         3        38     1      108.968994      495.235735
         6         3        39     1      108.968994      495.235735
         6        48        49     1      107.998886      596.618634
         7        18        12     1      122.040298      724.098161
         7        18        23     1      116.128212      320.885526
         7        26        16     1      122.902298      565.957632
         7        26        20     1      117.580322      599.849206
         8         5        13     1      117.606956      745.241738
         8         5        31     1      120.750504      415.603623
         8        19        15     1      118.750526      612.866939
         8        19        23     1      120.038025      362.403759
         9        24        17     1      115.954872      932.625577
         9        27        16     1      116.584206      753.082077
         9        28        10     1      124.813858      447.865643
         9        28        46     1      114.014587      482.548293
        10         1        34     1      109.147789      494.441340
        10         1        35     1      109.147789      494.441340
        10         4        40     1      109.147789      494.441340
        10         4        41     1      109.147789      494.441340
        10        28        46     1      118.398354      412.349684
        11        12        18     1      119.936729      510.649743
        11        12        32     1      120.067749      410.568215
        11        16        26     1      119.377609      601.387051
        11        16        27     1      122.348953      733.650316
        11        17        24     1      123.613258      737.001807
        11        17        33     1      119.671646      407.383802
        12        11        16     1      119.790161      689.755154
        12        11        17     1      125.018837      443.693677
        12        18        23     1      121.720322      450.152427
        13         5        31     1      121.558578      415.206138
        13        14        15     1      118.578598      692.396968
        13        14        29     1      119.971153      420.856319
        14        13        22     1      119.175308      576.491115
        14        15        19     1      120.569313      694.362878
        14        15        30     1      120.676376      412.191418
        15        14        29     1      121.452782      418.521557
        15        19        23     1      120.941635      501.739750
        16        11        17     1      115.023605      848.614616
        16        26        20     1      119.145645      531.854578
        18         7        25     1      122.794418      308.084125
        18         7        26     1      115.680199      669.218849
        18        12        32     1      120.082497      430.961544
        18        23        19     1      118.724243      413.969886
        19         8        21     1      119.050255      408.388879
        19        15        30     1      118.790665      407.974539
        24         9        27     1      126.160011      634.095683
        24         9        28     1      116.839798      599.536377
        24        17        33     1      116.349670      436.996283
        25         7        26     1      121.284714      608.542102
        26        16        27     1      118.116966      541.711040
        26        20        43     1      109.003319      486.045664
        26        20        44     1      109.003319      486.045664
        26        20        45     1      109.003319      486.045664
        27         9        28     1      116.439026      535.023797
        28        10        42     1      106.197220      521.015671
        34         1        35     1      106.768127      358.558955
        36         2        37     1      106.796005      359.861061
        38         3        39     1      106.796005      359.861029
        40         4        41     1      106.768127      358.558955
        43        20        44     1      109.918945      341.457392
        43        20        45     1      109.918945      341.457392
        44        20        45     1      109.918945      341.457392
        47         6        48     1      107.521996      491.915815

[ dihedrals ] ; propers for gromacs 4.5 or higher, use funct 9
;       ai        aj        ak        al funct           phase               k        pn
         1         2         6         3     9        0.000000        1.697249         1
         1         2         6         3     9      180.000000       -1.456948         2
         1         2         6         3     9        0.000000        0.195535         3
         1         2         6         3     9      180.000000       -0.041946         4
         1         2         6        47     9        0.000000       -0.324226         1
         1         2         6        47     9      180.000000        0.185803         2
         1         2         6        47     9        0.000000        0.373633         3
         1         2         6        47     9      180.000000        0.014535         4
         1         2         6        48     9        0.000000       -1.164281         1
         1         2         6        48     9      180.000000        0.521261         2
         1         2         6        48     9        0.000000        0.328112         3
         1         2         6        48     9      180.000000        0.090795         4
         1        10         4         3     9        0.000000        2.258499         1
         1        10         4         3     9      180.000000       -2.149455         2
         1        10         4         3     9        0.000000        0.143994         3
         1        10         4         3     9      180.000000        0.037269         4
         1        10         4        40     9        0.000000       -0.078110         1
         1        10         4        40     9      180.000000        0.054789         2
         1        10         4        40     9        0.000000        0.296987         3
         1        10         4        40     9      180.000000        0.013172         4
         1        10         4        41     9        0.000000       -0.078110         1
         1        10         4        41     9      180.000000        0.054789         2
         1        10         4        41     9        0.000000        0.296987         3
         1        10         4        41     9      180.000000        0.013172         4
         1        10        28         9     9        0.000000       -0.037106         1
         1        10        28         9     9      180.000000       -0.207071         2
         1        10        28         9     9        0.000000        0.576816         3
         1        10        28         9     9      180.000000        0.018863         4
         1        10        28        46     9        0.000000        0.304937         1
         1        10        28        46     9      180.000000        0.405150         2
         1        10        28        46     9        0.000000        0.055637         3
         1        10        28        46     9      180.000000       -0.045802         4
         2         1        10         4     9        0.000000        2.258499         1
         2         1        10         4     9      180.000000       -2.149455         2
         2         1        10         4     9        0.000000        0.143994         3
         2         1        10         4     9      180.000000        0.037269         4
         2         1        10        28     9        0.000000       -0.129703         1
         2         1        10        28     9      180.000000       -0.314053         2
         2         1        10        28     9        0.000000        0.252825         3
         2         1        10        28     9      180.000000        0.115867         4
         2         1        10        42     9        0.000000       -0.294202         1
         2         1        10        42     9      180.000000        0.006675         2
         2         1        10        42     9        0.000000        0.303702         3
         2         1        10        42     9      180.000000       -0.005915         4
         2         6         3         4     9        0.000000        1.697249         1
         2         6         3         4     9      180.000000       -1.456948         2
         2         6         3         4     9        0.000000        0.195535         3
         2         6         3         4     9      180.000000       -0.041946         4
         2         6         3        38     9        0.000000       -0.062025         1
         2         6         3        38     9      180.000000        0.066384         2
         2         6         3        38     9        0.000000        0.261351         3
         2         6         3        38     9      180.000000        0.028829         4
         2         6         3        39     9        0.000000       -0.062025         1
         2         6         3        39     9      180.000000        0.066384         2
         2         6         3        39     9        0.000000        0.261351         3
         2         6         3        39     9      180.000000        0.028829         4
         2         6        48        49     9        0.000000        2.061187         1
         2         6        48        49     9      180.000000       -0.558697         2
         2         6        48        49     9        0.000000        0.888052         3
         2         6        48        49     9      180.000000        0.103434         4
         3         4        10        28     9        0.000000       -0.129703         1
         3         4        10        28     9      180.000000       -0.314053         2
         3         4        10        28     9        0.000000        0.252825         3
         3         4        10        28     9      180.000000        0.115867         4
         3         4        10        42     9        0.000000       -0.294202         1
         3         4        10        42     9      180.000000        0.006675         2
         3         4        10        42     9        0.000000        0.303702         3
         3         4        10        42     9      180.000000       -0.005915         4
         3         6         2        36     9        0.000000       -0.062024         1
         3         6         2        36     9      180.000000        0.066384         2
         3         6         2        36     9        0.000000        0.261352         3
         3         6         2        36     9      180.000000        0.028828         4
         3         6         2        37     9        0.000000       -0.062024         1
         3         6         2        37     9      180.000000        0.066384         2
         3         6         2        37     9        0.000000        0.261352         3
         3         6         2        37     9      180.000000        0.028828         4
         3         6        48        49     9        0.000000        2.061187         1
         3         6        48        49     9      180.000000       -0.558697         2
         3         6        48        49     9        0.000000        0.888052         3
         3         6        48        49     9      180.000000        0.103434         4
         4         3         6        47     9        0.000000       -0.324226         1
         4         3         6        47     9      180.000000        0.185803         2
         4         3         6        47     9        0.000000        0.373633         3
         4         3         6        47     9      180.000000        0.014535         4
         4         3         6        48     9        0.000000       -1.164281         1
         4         3         6        48     9      180.000000        0.521261         2
         4         3         6        48     9        0.000000        0.328112         3
         4         3         6        48     9      180.000000        0.090795         4
         4        10         1        34     9        0.000000       -0.078110         1
         4        10         1        34     9      180.000000        0.054789         2
         4        10         1        34     9        0.000000        0.296987         3
         4        10         1        34     9      180.000000        0.013172         4
         4        10         1        35     9        0.000000       -0.078110         1
         4        10         1        35     9      180.000000        0.054789         2
         4        10         1        35     9        0.000000        0.296987         3
         4        10         1        35     9      180.000000        0.013172         4
         4        10        28         9     9        0.000000       -0.037106         1
         4        10        28         9     9      180.000000       -0.207071         2
         4        10        28         9     9        0.000000        0.576816         3
         4        10        28         9     9      180.000000        0.018863         4
         4        10        28        46     9        0.000000        0.304937         1
         4        10        28        46     9      180.000000        0.405150         2
         4        10        28        46     9        0.000000        0.055637         3
         4        10        28        46     9      180.000000       -0.045802         4
         5         8        19        15     9        0.000000       -0.033769         1
         5         8        19        15     9      180.000000       15.070050         2
         5         8        19        15     9        0.000000       -0.822733         3
         5         8        19        15     9      180.000000       -0.166007         4
         5         8        19        23     9        0.000000        0.213515         1
         5         8        19        23     9      180.000000       15.796953         2
         5         8        19        23     9        0.000000        0.046168         3
         5         8        19        23     9      180.000000       -0.230207         4
         5        13        14        15     9        0.000000       -0.084562         1
         5        13        14        15     9      180.000000       17.436868         2
         5        13        14        15     9        0.000000       -1.215052         3
         5        13        14        15     9      180.000000       -0.350359         4
         5        13        14        29     9        0.000000        0.222596         1
         5        13        14        29     9      180.000000       12.990701         2
         5        13        14        29     9        0.000000       -0.533192         3
         5        13        14        29     9      180.000000        0.123340         4
         6         2         1        10     9        0.000000        1.530848         1
         6         2         1        10     9      180.000000       -2.221538         2
         6         2         1        10     9        0.000000        0.166448         3
         6         2         1        10     9      180.000000        0.066827         4
         6         2         1        34     9        0.000000       -0.074913         1
         6         2         1        34     9      180.000000        0.089404         2
         6         2         1        34     9        0.000000        0.210055         3
         6         2         1        34     9      180.000000        0.003535         4
         6         2         1        35     9        0.000000       -0.074913         1
         6         2         1        35     9      180.000000        0.089404         2
         6         2         1        35     9        0.000000        0.210055         3
         6         2         1        35     9      180.000000        0.003535         4
         6         3         4        10     9        0.000000        1.530848         1
         6         3         4        10     9      180.000000       -2.221538         2
         6         3         4        10     9        0.000000        0.166448         3
         6         3         4        10     9      180.000000        0.066827         4
         6         3         4        40     9        0.000000       -0.074913         1
         6         3         4        40     9      180.000000        0.089404         2
         6         3         4        40     9        0.000000        0.210054         3
         6         3         4        40     9      180.000000        0.003535         4
         6         3         4        41     9        0.000000       -0.074913         1
         6         3         4        41     9      180.000000        0.089404         2
         6         3         4        41     9        0.000000        0.210054         3
         6         3         4        41     9      180.000000        0.003535         4
         7        18        12        11     9        0.000000       -0.265137         1
         7        18        12        11     9      180.000000       20.042194         2
         7        18        12        11     9        0.000000       -0.708806         3
         7        18        12        11     9      180.000000       -0.884190         4
         7        18        12        32     9        0.000000       -0.033528         1
         7        18        12        32     9      180.000000       15.197706         2
         7        18        12        32     9        0.000000       -0.108211         3
         7        18        12        32     9      180.000000        0.062165         4
         7        18        23        19     9        0.000000        1.516945         1
         7        18        23        19     9      180.000000        3.262531         2
         7        18        23        19     9        0.000000        1.468404         3
         7        18        23        19     9      180.000000       -0.331072         4
         7        26        16        11     9        0.000000       -0.733726         1
         7        26        16        11     9      180.000000        5.946970         2
         7        26        16        11     9        0.000000       -0.505434         3
         7        26        16        11     9      180.000000        0.176990         4
         7        26        16        27     9        0.000000        0.444340         1
         7        26        16        27     9      180.000000        7.793679         2
         7        26        16        27     9        0.000000        0.430302         3
         7        26        16        27     9      180.000000       -0.208931         4
         7        26        20        43     9        0.000000        0.022638         1
         7        26        20        43     9      180.000000        0.065321         2
         7        26        20        43     9        0.000000       -0.063790         3
         7        26        20        43     9      180.000000        0.031607         4
         7        26        20        44     9        0.000000        0.022638         1
         7        26        20        44     9      180.000000        0.065321         2
         7        26        20        44     9        0.000000       -0.063790         3
         7        26        20        44     9      180.000000        0.031607         4
         7        26        20        45     9        0.000000        0.022638         1
         7        26        20        45     9      180.000000        0.065321         2
         7        26        20        45     9        0.000000       -0.063790         3
         7        26        20        45     9      180.000000        0.031607         4
         8         5        13        14     9        0.000000       -0.101773         1
         8         5        13        14     9      180.000000       17.261374         2
         8         5        13        14     9        0.000000       -1.245547         3
         8         5        13        14     9      180.000000       -0.369105         4
         8         5        13        22     9        0.000000        0.202544         1
         8         5        13        22     9      180.000000       22.811181         2
         8         5        13        22     9        0.000000        0.550755         3
         8         5        13        22     9      180.000000       -0.701551         4
         8        19        15        14     9        0.000000       -0.019541         1
         8        19        15        14     9      180.000000       17.479613         2
         8        19        15        14     9        0.000000       -1.174083         3
         8        19        15        14     9      180.000000       -0.342804         4
         8        19        15        30     9        0.000000        0.103760         1
         8        19        15        30     9      180.000000       12.825624         2
         8        19        15        30     9        0.000000       -0.551225         3
         8        19        15        30     9      180.000000        0.193193         4
         8        19        23        18     9        0.000000        0.381500         1
         8        19        23        18     9      180.000000        2.030263         2
         8        19        23        18     9        0.000000        0.322851         3
         8        19        23        18     9      180.000000       -0.088607         4
         9        24        17        11     9        0.000000       -0.315688         1
         9        24        17        11     9      180.000000       20.909885         2
         9        24        17        11     9        0.000000       -1.463467         3
         9        24        17        11     9      180.000000       -0.227042         4
         9        24        17        33     9        0.000000        0.357883         1
         9        24        17        33     9      180.000000       19.018619         2
         9        24        17        33     9        0.000000       -0.094002         3
         9        24        17        33     9      180.000000       -0.241065         4
         9        27        16        11     9        0.000000       -0.256988         1
         9        27        16        11     9      180.000000       12.342726         2
         9        27        16        11     9        0.000000       -0.532318         3
         9        27        16        11     9      180.000000       -0.015120         4
         9        27        16        26     9        0.000000       -0.268198         1
         9        27        16        26     9      180.000000       16.435082         2
         9        27        16        26     9        0.000000        0.522123         3
         9        27        16        26     9      180.000000       -0.468772         4
         9        28        10        42     9        0.000000       -0.215281         1
         9        28        10        42     9      180.000000        0.198137         2
         9        28        10        42     9        0.000000        0.658323         3
         9        28        10        42     9      180.000000        0.028070         4
        10         1         2        36     9        0.000000       -0.057602         1
        10         1         2        36     9      180.000000        0.066053         2
        10         1         2        36     9        0.000000        0.238277         3
        10         1         2        36     9      180.000000        0.010478         4
        10         1         2        37     9        0.000000       -0.057602         1
        10         1         2        37     9      180.000000        0.066053         2
        10         1         2        37     9        0.000000        0.238277         3
        10         1         2        37     9      180.000000        0.010478         4
        10         4         3        38     9        0.000000       -0.057602         1
        10         4         3        38     9      180.000000        0.066054         2
        10         4         3        38     9        0.000000        0.238278         3
        10         4         3        38     9      180.000000        0.010478         4
        10         4         3        39     9        0.000000       -0.057602         1
        10         4         3        39     9      180.000000        0.066054         2
        10         4         3        39     9        0.000000        0.238278         3
        10         4         3        39     9      180.000000        0.010478         4
        10        28         9        24     9        0.000000        0.417834         1
        10        28         9        24     9      180.000000        8.123148         2
        10        28         9        24     9        0.000000        0.640238         3
        10        28         9        24     9      180.000000       -0.916975         4
        10        28         9        27     9        0.000000       -0.099650         1
        10        28         9        27     9      180.000000        8.579262         2
        10        28         9        27     9        0.000000        0.324503         3
        10        28         9        27     9      180.000000       -0.740272         4
        11        12        18        23     9        0.000000       -0.497504         1
        11        12        18        23     9      180.000000       27.319683         2
        11        12        18        23     9        0.000000       -0.115449         3
        11        12        18        23     9      180.000000       -1.532204         4
        11        16        26        20     9        0.000000       -0.020295         1
        11        16        26        20     9      180.000000        8.784536         2
        11        16        26        20     9        0.000000       -0.090448         3
        11        16        26        20     9      180.000000        0.170647         4
        12        11        16        26     9        0.000000        0.257457         1
        12        11        16        26     9      180.000000       13.068944         2
        12        11        16        26     9        0.000000       -0.102869         3
        12        11        16        26     9      180.000000       -0.472411         4
        12        11        16        27     9        0.000000        0.224114         1
        12        11        16        27     9      180.000000       12.213707         2
        12        11        16        27     9        0.000000        0.125591         3
        12        11        16        27     9      180.000000       -0.327032         4
        12        11        17        24     9        0.000000        0.059530         1
        12        11        17        24     9      180.000000       14.043683         2
        12        11        17        24     9        0.000000        0.087186         3
        12        11        17        24     9      180.000000       -0.510607         4
        12        11        17        33     9        0.000000        0.132621         1
        12        11        17        33     9      180.000000       12.128396         2
        12        11        17        33     9        0.000000        0.200812         3
        12        11        17        33     9      180.000000       -0.110094         4
        12        18         7        25     9        0.000000        0.484356         1
        12        18         7        25     9      180.000000        5.076079         2
        12        18         7        25     9        0.000000       -0.049823         3
        12        18         7        25     9      180.000000       -0.379185         4
        12        18         7        26     9        0.000000        1.749896         1
        12        18         7        26     9      180.000000        2.060494         2
        12        18         7        26     9        0.000000        0.186700         3
        12        18         7        26     9      180.000000        0.011112         4
        12        18        23        19     9        0.000000       -0.338245         1
        12        18        23        19     9      180.000000        4.737598         2
        12        18        23        19     9        0.000000       -1.572261         3
        12        18        23        19     9      180.000000        0.139854         4
        13         5         8        19     9        0.000000       -0.159544         1
        13         5         8        19     9      180.000000       17.441704         2
        13         5         8        19     9        0.000000       -1.253452         3
        13         5         8        19     9      180.000000       -0.342164         4
        13         5         8        21     9        0.000000        0.535263         1
        13         5         8        21     9      180.000000       22.924715         2
        13         5         8        21     9        0.000000        0.562820         3
        13         5         8        21     9      180.000000       -0.548398         4
        13        14        15        19     9        0.000000       -0.193831         1
        13        14        15        19     9      180.000000       18.718306         2
        13        14        15        19     9        0.000000       -1.470902         3
        13        14        15        19     9      180.000000       -0.444338         4
        13        14        15        30     9        0.000000        0.152983         1
        13        14        15        30     9      180.000000       14.549564         2
        13        14        15        30     9        0.000000       -0.624238         3
        13        14        15        30     9      180.000000        0.081753         4
        14        13         5        31     9        0.000000        0.181711         1
        14        13         5        31     9      180.000000       12.249439         2
        14        13         5        31     9        0.000000       -0.437418         3
        14        13         5        31     9      180.000000        0.175565         4
        14        15        19        23     9        0.000000        0.435183         1
        14        15        19        23     9      180.000000       18.963855         2
        14        15        19        23     9        0.000000        0.317361         3
        14        15        19        23     9      180.000000       -0.395936         4
        15        14        13        22     9        0.000000        0.505280         1
        15        14        13        22     9      180.000000       23.564142         2
        15        14        13        22     9        0.000000        0.449858         3
        15        14        13        22     9      180.000000       -0.661252         4
        15        19         8        21     9        0.000000        0.586984         1
        15        19         8        21     9      180.000000       18.000233         2
        15        19         8        21     9        0.000000        0.390466         3
        15        19         8        21     9      180.000000       -0.347261         4
        15        19        23        18     9        0.000000       -0.612805         1
        15        19        23        18     9      180.000000        3.389636         2
        15        19        23        18     9        0.000000       -0.690547         3
        15        19        23        18     9      180.000000        0.142857         4
        16        11        12        18     9        0.000000       -0.799091         1
        16        11        12        18     9      180.000000       11.980908         2
        16        11        12        18     9        0.000000       -1.633730         3
        16        11        12        18     9      180.000000       -0.275690         4
        16        11        12        32     9        0.000000        0.156704         1
        16        11        12        32     9      180.000000        8.220558         2
        16        11        12        32     9        0.000000       -0.341729         3
        16        11        12        32     9      180.000000       -0.142661         4
        16        11        17        24     9        0.000000        0.166299         1
        16        11        17        24     9      180.000000       14.579570         2
        16        11        17        24     9        0.000000       -0.219544         3
        16        11        17        24     9      180.000000       -0.409876         4
        16        11        17        33     9        0.000000        0.221468         1
        16        11        17        33     9      180.000000       12.179784         2
        16        11        17        33     9        0.000000       -0.249136         3
        16        11        17        33     9      180.000000       -0.223888         4
        16        26         7        18     9        0.000000       -1.654043         1
        16        26         7        18     9      180.000000        4.415846         2
        16        26         7        18     9        0.000000        0.016814         3
        16        26         7        18     9      180.000000        0.125022         4
        16        26         7        25     9        0.000000        0.389893         1
        16        26         7        25     9      180.000000       10.254704         2
        16        26         7        25     9        0.000000       -0.621593         3
        16        26         7        25     9      180.000000       -0.268590         4
        16        26        20        43     9        0.000000       -0.080402         1
        16        26        20        43     9      180.000000        0.031038         2
        16        26        20        43     9        0.000000       -0.111293         3
        16        26        20        43     9      180.000000        0.045004         4
        16        26        20        44     9        0.000000       -0.080402         1
        16        26        20        44     9      180.000000        0.031038         2
        16        26        20        44     9        0.000000       -0.111293         3
        16        26        20        44     9      180.000000        0.045004         4
        16        26        20        45     9        0.000000       -0.080402         1
        16        26        20        45     9      180.000000        0.031038         2
        16        26        20        45     9        0.000000       -0.111293         3
        16        26        20        45     9      180.000000        0.045004         4
        16        27         9        24     9        0.000000        0.800267         1
        16        27         9        24     9      180.000000        9.928387         2
        16        27         9        24     9        0.000000        0.587508         3
        16        27         9        24     9      180.000000       -0.404742         4
        16        27         9        28     9        0.000000        0.726458         1
        16        27         9        28     9      180.000000       16.012944         2
        16        27         9        28     9        0.000000        0.259879         3
        16        27         9        28     9      180.000000       -0.998727         4
        17        11        12        18     9        0.000000       -0.634902         1
        17        11        12        18     9      180.000000        8.738636         2
        17        11        12        18     9        0.000000       -0.852321         3
        17        11        12        18     9      180.000000        0.033652         4
        17        11        12        32     9        0.000000       -0.810136         1
        17        11        12        32     9      180.000000        4.826038         2
        17        11        12        32     9        0.000000       -0.379630         3
        17        11        12        32     9      180.000000       -0.055712         4
        17        11        16        26     9        0.000000       -0.381661         1
        17        11        16        26     9      180.000000       11.829441         2
        17        11        16        26     9        0.000000       -0.321284         3
        17        11        16        26     9      180.000000       -0.346176         4
        17        11        16        27     9        0.000000       -0.022521         1
        17        11        16        27     9      180.000000       11.108630         2
        17        11        16        27     9        0.000000        0.149539         3
        17        11        16        27     9      180.000000       -0.272534         4
        17        24         9        27     9        0.000000        0.675522         1
        17        24         9        27     9      180.000000        9.660827         2
        17        24         9        27     9        0.000000        0.779809         3
        17        24         9        27     9      180.000000       -0.509161         4
        17        24         9        28     9        0.000000        1.234234         1
        17        24         9        28     9      180.000000       15.020425         2
        17        24         9        28     9        0.000000        0.452886         3
        17        24         9        28     9      180.000000       -0.782284         4
        18         7        26        20     9        0.000000        0.463790         1
        18         7        26        20     9      180.000000        9.121669         2
        18         7        26        20     9        0.000000        0.308329         3
        18         7        26        20     9      180.000000        0.001686         4
        19         8         5        31     9        0.000000        0.204291         1
        19         8         5        31     9      180.000000       12.330683         2
        19         8         5        31     9        0.000000       -0.429751         3
        19         8         5        31     9      180.000000        0.180492         4
        19        15        14        29     9        0.000000        0.085472         1
        19        15        14        29     9      180.000000       14.240723         2
        19        15        14        29     9        0.000000       -0.502524         3
        19        15        14        29     9      180.000000        0.093111         4
        20        26         7        25     9        0.000000       -0.626932         1
        20        26         7        25     9      180.000000       11.384754         2
        20        26         7        25     9        0.000000       -1.173840         3
        20        26         7        25     9      180.000000        0.509300         4
        20        26        16        27     9        0.000000       -0.851046         1
        20        26        16        27     9      180.000000       10.023890         2
        20        26        16        27     9        0.000000       -0.110559         3
        20        26        16        27     9      180.000000        0.221242         4
        21         8         5        31     9        0.000000        0.356407         1
        21         8         5        31     9      180.000000       15.755417         2
        21         8         5        31     9        0.000000        0.173168         3
        21         8         5        31     9      180.000000        0.272104         4
        21         8        19        23     9        0.000000       -0.107429         1
        21         8        19        23     9      180.000000       20.900297         2
        21         8        19        23     9        0.000000        0.246361         3
        21         8        19        23     9      180.000000       -0.890880         4
        22        13         5        31     9        0.000000        0.302040         1
        22        13         5        31     9      180.000000       14.938911         2
        22        13         5        31     9        0.000000        0.256433         3
        22        13         5        31     9      180.000000        0.230067         4
        22        13        14        29     9        0.000000        0.256909         1
        22        13        14        29     9      180.000000       16.033530         2
        22        13        14        29     9        0.000000        0.305426         3
        22        13        14        29     9      180.000000        0.139760         4
        23        18         7        25     9        0.000000       -1.917023         1
        23        18         7        25     9      180.000000       10.924892         2
        23        18         7        25     9        0.000000       -0.430673         3
        23        18         7        25     9      180.000000       -0.290223         4
        23        18         7        26     9        0.000000        0.111386         1
        23        18         7        26     9      180.000000        7.207315         2
        23        18         7        26     9        0.000000        0.351182         3
        23        18         7        26     9      180.000000        0.012035         4
        23        18        12        32     9        0.000000        0.155001         1
        23        18        12        32     9      180.000000       19.751095         2
        23        18        12        32     9        0.000000        0.160795         3
        23        18        12        32     9      180.000000       -0.191934         4
        23        19        15        30     9        0.000000        0.172923         1
        23        19        15        30     9      180.000000       14.279827         2
        23        19        15        30     9        0.000000        0.166673         3
        23        19        15        30     9      180.000000        0.327322         4
        24         9        28        46     9        0.000000       -0.554228         1
        24         9        28        46     9      180.000000       10.589389         2
        24         9        28        46     9        0.000000       -0.447048         3
        24         9        28        46     9      180.000000       -0.636396         4
        27         9        28        46     9        0.000000        0.728151         1
        27         9        28        46     9      180.000000       10.652610         2
        27         9        28        46     9        0.000000       -0.500816         3
        27         9        28        46     9      180.000000       -0.500877         4
        28        10         1        34     9        0.000000        0.088404         1
        28        10         1        34     9      180.000000        0.094138         2
        28        10         1        34     9        0.000000        0.344013         3
        28        10         1        34     9      180.000000       -0.023467         4
        28        10         1        35     9        0.000000        0.088404         1
        28        10         1        35     9      180.000000        0.094138         2
        28        10         1        35     9        0.000000        0.344013         3
        28        10         1        35     9      180.000000       -0.023467         4
        28        10         4        40     9        0.000000        0.088404         1
        28        10         4        40     9      180.000000        0.094139         2
        28        10         4        40     9        0.000000        0.344013         3
        28        10         4        40     9      180.000000       -0.023467         4
        28        10         4        41     9        0.000000        0.088404         1
        28        10         4        41     9      180.000000        0.094139         2
        28        10         4        41     9        0.000000        0.344013         3
        28        10         4        41     9      180.000000       -0.023467         4
        29        14        15        30     9        0.000000       -0.156577         1
        29        14        15        30     9      180.000000       11.949669         2
        29        14        15        30     9        0.000000       -0.717197         3
        29        14        15        30     9      180.000000        0.181692         4
        34         1         2        36     9        0.000000        0.031415         1
        34         1         2        36     9      180.000000        0.002215         2
        34         1         2        36     9        0.000000        0.297639         3
        34         1         2        36     9      180.000000        0.037345         4
        34         1         2        37     9        0.000000        0.031415         1
        34         1         2        37     9      180.000000        0.002215         2
        34         1         2        37     9        0.000000        0.297639         3
        34         1         2        37     9      180.000000        0.037345         4
        34         1        10        42     9        0.000000       -0.015736         1
        34         1        10        42     9      180.000000        0.003440         2
        34         1        10        42     9        0.000000        0.327489         3
        34         1        10        42     9      180.000000        0.101635         4
        35         1         2        36     9        0.000000        0.031415         1
        35         1         2        36     9      180.000000        0.002215         2
        35         1         2        36     9        0.000000        0.297639         3
        35         1         2        36     9      180.000000        0.037345         4
        35         1         2        37     9        0.000000        0.031415         1
        35         1         2        37     9      180.000000        0.002215         2
        35         1         2        37     9        0.000000        0.297639         3
        35         1         2        37     9      180.000000        0.037345         4
        35         1        10        42     9        0.000000       -0.015736         1
        35         1        10        42     9      180.000000        0.003440         2
        35         1        10        42     9        0.000000        0.327489         3
        35         1        10        42     9      180.000000        0.101635         4
        36         2         6        47     9        0.000000        0.011197         1
        36         2         6        47     9      180.000000       -0.023878         2
        36         2         6        47     9        0.000000        0.386670         3
        36         2         6        47     9      180.000000        0.009717         4
        36         2         6        48     9        0.000000       -0.000872         1
        36         2         6        48     9      180.000000        0.008036         2
        36         2         6        48     9        0.000000        0.363513         3
        36         2         6        48     9      180.000000       -0.053091         4
        37         2         6        47     9        0.000000        0.011197         1
        37         2         6        47     9      180.000000       -0.023878         2
        37         2         6        47     9        0.000000        0.386670         3
        37         2         6        47     9      180.000000        0.009717         4
        37         2         6        48     9        0.000000       -0.000872         1
        37         2         6        48     9      180.000000        0.008036         2
        37         2         6        48     9        0.000000        0.363513         3
        37         2         6        48     9      180.000000       -0.053091         4
        38         3         4        40     9        0.000000        0.031415         1
        38         3         4        40     9      180.000000        0.002216         2
        38         3         4        40     9        0.000000        0.297639         3
        38         3         4        40     9      180.000000        0.037345         4
        38         3         4        41     9        0.000000        0.031415         1
        38         3         4        41     9      180.000000        0.002216         2
        38         3         4        41     9        0.000000        0.297639         3
        38         3         4        41     9      180.000000        0.037345         4
        38         3         6        47     9        0.000000        0.011197         1
        38         3         6        47     9      180.000000       -0.023878         2
        38         3         6        47     9        0.000000        0.386670         3
        38         3         6        47     9      180.000000        0.009717         4
        38         3         6        48     9        0.000000       -0.000872         1
        38         3         6        48     9      180.000000        0.008036         2
        38         3         6        48     9        0.000000        0.363514         3
        38         3         6        48     9      180.000000       -0.053091         4
        39         3         4        40     9        0.000000        0.031415         1
        39         3         4        40     9      180.000000        0.002216         2
        39         3         4        40     9        0.000000        0.297639         3
        39         3         4        40     9      180.000000        0.037345         4
        39         3         4        41     9        0.000000        0.031415         1
        39         3         4        41     9      180.000000        0.002216         2
        39         3         4        41     9        0.000000        0.297639         3
        39         3         4        41     9      180.000000        0.037345         4
        39         3         6        47     9        0.000000        0.011197         1
        39         3         6        47     9      180.000000       -0.023878         2
        39         3         6        47     9        0.000000        0.386670         3
        39         3         6        47     9      180.000000        0.009717         4
        39         3         6        48     9        0.000000       -0.000872         1
        39         3         6        48     9      180.000000        0.008036         2
        39         3         6        48     9        0.000000        0.363514         3
        39         3         6        48     9      180.000000       -0.053091         4
        40         4        10        42     9        0.000000       -0.015734         1
        40         4        10        42     9      180.000000        0.003440         2
        40         4        10        42     9        0.000000        0.327489         3
        40         4        10        42     9      180.000000        0.101635         4
        41         4        10        42     9        0.000000       -0.015734         1
        41         4        10        42     9      180.000000        0.003440         2
        41         4        10        42     9        0.000000        0.327489         3
        41         4        10        42     9      180.000000        0.101635         4
        42        10        28        46     9        0.000000       -0.727866         1
        42        10        28        46     9      180.000000       -0.185923         2
        42        10        28        46     9        0.000000        0.208966         3
        42        10        28        46     9      180.000000        0.036556         4
        47         6        48        49     9        0.000000       -0.078705         1
        47         6        48        49     9      180.000000       -1.410102         2
        47         6        48        49     9        0.000000        0.825611         3
        47         6        48        49     9      180.000000        0.161468         4

[ dihedrals ] ; impropers
;       ai        aj        ak        al funct           phase               k        pn
         7        18        25        26     4      180.000000       20.883039         2
         7        25        26        18     4      180.000000       20.883039         2
         7        26        18        25     4      180.000000       20.883039         2
         9        24        27        28     4      180.000000       27.893333         2
         9        27        28        24     4      180.000000       27.893333         2
         9        28        24        27     4      180.000000       27.893333         2
        12        11        18        32     4      180.000000        2.344824         2
        12        18        32        11     4      180.000000        2.344824         2
        12        32        11        18     4      180.000000        2.344824         2
        13         5        14        22     4      180.000000        0.457749         2
        13        14        22         5     4      180.000000        0.457749         2
        13        22         5        14     4      180.000000        0.457749         2
        15        14        19        30     4      180.000000        1.019580         2
        15        19        30        14     4      180.000000        1.019580         2
        15        30        14        19     4      180.000000        1.019580         2
        16        11        26        27     4      180.000000       14.360232         2
        16        26        27        11     4      180.000000       14.360232         2
        16        27        11        26     4      180.000000       14.360232         2
        17        11        24        33     4      180.000000       13.789488         2
        17        24        33        11     4      180.000000       13.789488         2
        17        33        11        24     4      180.000000       13.789488         2

[ pairs ]
;       ai        aj funct
         1         3     1
         1         9     1
         1        40     1
         1        41     1
         1        46     1
         1        47     1
         1        48     1
         2         4     1
         2        28     1
         2        38     1
         2        39     1
         2        42     1
         2        49     1
         3        28     1
         3        36     1
         3        37     1
         3        42     1
         3        49     1
         4         9     1
         4        34     1
         4        35     1
         4        46     1
         4        47     1
         4        48     1
         5        15     1
         5        23     1
         5        29     1
         6        10     1
         6        34     1
         6        35     1
         6        40     1
         6        41     1
         7        11     1
         7        19     1
         7        27     1
         7        32     1
         7        43     1
         7        44     1
         7        45     1
         8        14     1
         8        18     1
         8        22     1
         8        30     1
         9        11     1
         9        26     1
         9        33     1
         9        42     1
        10        24     1
        10        27     1
        10        36     1
        10        37     1
        10        38     1
        10        39     1
        11        20     1
        11        23     1
        12        19     1
        12        24     1
        12        25     1
        12        26     1
        12        27     1
        12        33     1
        13        19     1
        13        21     1
        13        30     1
        14        23     1
        14        31     1
        15        18     1
        15        21     1
        15        22     1
        16        18     1
        16        24     1
        16        25     1
        16        28     1
        16        32     1
        16        33     1
        16        43     1
        16        44     1
        16        45     1
        17        18     1
        17        26     1
        17        27     1
        17        28     1
        17        32     1
        18        20     1
        19        29     1
        19        31     1
        20        25     1
        20        27     1
        21        23     1
        21        31     1
        22        29     1
        22        31     1
        23        25     1
        23        26     1
        23        30     1
        23        32     1
        24        46     1
        27        46     1
        28        34     1
        28        35     1
        28        40     1
        28        41     1
        29        30     1
        34        36     1
        34        37     1
        34        42     1
        35        36     1
        35        37     1
        35        42     1
        36        47     1
        36        48     1
        37        47     1
        37        48     1
        38        40     1
        38        41     1
        38        47     1
        38        48     1
        39        40     1
        39        41     1
        39        47     1
        39        48     1
        40        42     1
        41        42     1
        42        46     1
        47        49     1
