; ITP file created by ByteFF-ML, 2026-02-21 08:23:09.950471

[ atomtypes ]
;name           bonded.type        at.num        mass        charge   ptype           sigma         epsilon
 c0bf                                   6      0.0000       0.00000       A     3.39825e-01     4.50572e-01
 c1bf                                   6      0.0000       0.00000       A     3.39678e-01     4.51033e-01
 c2bf                                   6      0.0000       0.00000       A     3.39678e-01     4.51033e-01
 c3bf                                   6      0.0000       0.00000       A     3.39825e-01     4.50572e-01
 c4bf                                   6      0.0000       0.00000       A     3.31451e-01     4.12036e-01
 o5bf                                   8      0.0000       0.00000       A     3.15644e-01     3.03351e-01
 c6bf                                   6      0.0000       0.00000       A     3.31426e-01     4.13955e-01
 c7bf                                   6      0.0000       0.00000       A     3.31509e-01     4.13299e-01
 c8bf                                   6      0.0000       0.00000       A     3.31542e-01     4.14110e-01
 c9bf                                   6      0.0000       0.00000       A     3.39714e-01     4.52178e-01
 c10bf                                  6      0.0000       0.00000       A     3.31327e-01     4.13299e-01
 c11bf                                  6      0.0000       0.00000       A     3.31646e-01     4.12777e-01
 c12bf                                  6      0.0000       0.00000       A     3.31509e-01     4.12724e-01
 c13bf                                  6      0.0000       0.00000       A     3.31532e-01     4.13304e-01
 c14bf                                  6      0.0000       0.00000       A     3.31490e-01     4.12466e-01
 c15bf                                  6      0.0000       0.00000       A     3.31345e-01     4.13845e-01
 c16bf                                  6      0.0000       0.00000       A     3.31262e-01     4.14236e-01
 c17bf                                  6      0.0000       0.00000       A     3.31255e-01     4.17977e-01
 c18bf                                  6      0.0000       0.00000       A     3.31468e-01     4.12889e-01
 c19bf                                  6      0.0000       0.00000       A     3.39751e-01     4.51327e-01
 f20bf                                  9      0.0000       0.00000       A     3.03357e-01     3.47509e-01
 o21bf                                  8      0.0000       0.00000       A     3.16224e-01     3.10258e-01
 n22bf                                  7      0.0000       0.00000       A     3.38488e-01     3.93278e-01
 o23bf                                  8      0.0000       0.00000       A     3.04735e-01     6.10225e-01
 n24bf                                  7      0.0000       0.00000       A     3.18016e-01     6.83025e-01
 n25bf                                  7      0.0000       0.00000       A     3.38471e-01     3.92089e-01
 n26bf                                  7      0.0000       0.00000       A     3.27859e-01     6.48853e-01
 h27bf                                  1      0.0000       0.00000       A     2.62489e-01     6.72695e-02
 h28bf                                  1      0.0000       0.00000       A     2.62398e-01     6.69743e-02
 h29bf                                  1      0.0000       0.00000       A     2.62517e-01     6.70445e-02
 h30bf                                  1      0.0000       0.00000       A     2.62452e-01     6.74148e-02
 h31bf                                  1      0.0000       0.00000       A     2.53572e-01     6.74323e-02
 h32bf                                  1      0.0000       0.00000       A     2.59805e-01     8.76130e-02
 h33bf                                  1      0.0000       0.00000       A     2.59805e-01     8.76130e-02
 h34bf                                  1      0.0000       0.00000       A     2.42083e-01     8.71949e-02
 h35bf                                  1      0.0000       0.00000       A     2.42083e-01     8.71949e-02
 h36bf                                  1      0.0000       0.00000       A     2.42083e-01     8.71949e-02
 h37bf                                  1      0.0000       0.00000       A     2.42083e-01     8.71949e-02
 h38bf                                  1      0.0000       0.00000       A     2.59805e-01     8.76130e-02
 h39bf                                  1      0.0000       0.00000       A     2.59805e-01     8.76130e-02
 h40bf                                  1      0.0000       0.00000       A     2.42326e-01     8.58414e-02
 h41bf                                  1      0.0000       0.00000       A     2.42068e-01     8.71789e-02
 h42bf                                  1      0.0000       0.00000       A     2.42068e-01     8.71789e-02
 h43bf                                  1      0.0000       0.00000       A     2.42068e-01     8.71789e-02
 h44bf                                  1      0.0000       0.00000       A     1.10329e-01     4.16526e-02
 h45bf                                  1      0.0000       0.00000       A     2.62469e-01     6.71339e-02

[ moleculetype ]
;name             nrexcl
 2g                    3

[ atoms ]
;       nr            type      resi   res      atom      cgnr      charge          mass ; qtot
         1            c0bf         1   UNL        c0         1    -0.12568       12.0110 ; qtot   -0.126
         2            c1bf         1   UNL        c1         2     0.15457       12.0110 ; qtot    0.029
         3            c2bf         1   UNL        c2         3     0.15457       12.0110 ; qtot    0.183
         4            c3bf         1   UNL        c3         4    -0.12568       12.0110 ; qtot    0.058
         5            c4bf         1   UNL        c4         5    -0.13434       12.0110 ; qtot   -0.077
         6            o5bf         1   UNL        o5         6    -0.46215       15.9990 ; qtot   -0.539
         7            c6bf         1   UNL        c6         7     0.56377       12.0110 ; qtot    0.025
         8            c7bf         1   UNL        c7         8     0.15013       12.0110 ; qtot    0.175
         9            c8bf         1   UNL        c8         9     0.41197       12.0110 ; qtot    0.587
        10            c9bf         1   UNL        c9        10     0.24222       12.0110 ; qtot    0.829
        11           c10bf         1   UNL       c10        11    -0.27669       12.0110 ; qtot    0.553
        12           c11bf         1   UNL       c11        12    -0.09552       12.0110 ; qtot    0.457
        13           c12bf         1   UNL       c12        13    -0.09394       12.0110 ; qtot    0.363
        14           c13bf         1   UNL       c13        14    -0.11102       12.0110 ; qtot    0.252
        15           c14bf         1   UNL       c14        15    -0.10489       12.0110 ; qtot    0.147
        16           c15bf         1   UNL       c15        16     0.30604       12.0110 ; qtot    0.453
        17           c16bf         1   UNL       c16        17     0.20417       12.0110 ; qtot    0.658
        18           c17bf         1   UNL       c17        18     0.00731       12.0110 ; qtot    0.665
        19           c18bf         1   UNL       c18        19     0.07106       12.0110 ; qtot    0.736
        20           c19bf         1   UNL       c19        20     0.08123       12.0110 ; qtot    0.817
        21           f20bf         1   UNL       f20        21    -0.16789       18.9980 ; qtot    0.649
        22           o21bf         1   UNL       o21        22    -0.21466       15.9990 ; qtot    0.435
        23           n22bf         1   UNL       n22        23    -0.25003       14.0070 ; qtot    0.185
        24           o23bf         1   UNL       o23        24    -0.53096       15.9990 ; qtot   -0.346
        25           n24bf         1   UNL       n24        25    -0.36669       14.0070 ; qtot   -0.713
        26           n25bf         1   UNL       n25        26    -0.30579       14.0070 ; qtot   -1.019
        27           n26bf         1   UNL       n26        27    -0.90583       14.0070 ; qtot   -1.925
        28           h27bf         1   UNL       h27        28     0.12325        1.0080 ; qtot   -1.801
        29           h28bf         1   UNL       h28        29     0.13509        1.0080 ; qtot   -1.666
        30           h29bf         1   UNL       h29        30     0.13841        1.0080 ; qtot   -1.528
        31           h30bf         1   UNL       h30        31     0.20692        1.0080 ; qtot   -1.321
        32           h31bf         1   UNL       h31        32     0.02850        1.0080 ; qtot   -1.293
        33           h32bf         1   UNL       h32        33     0.05821        1.0080 ; qtot   -1.234
        34           h33bf         1   UNL       h33        34     0.05821        1.0080 ; qtot   -1.176
        35           h34bf         1   UNL       h34        35     0.04708        1.0080 ; qtot   -1.129
        36           h35bf         1   UNL       h35        36     0.04708        1.0080 ; qtot   -1.082
        37           h36bf         1   UNL       h36        37     0.04708        1.0080 ; qtot   -1.035
        38           h37bf         1   UNL       h37        38     0.04708        1.0080 ; qtot   -0.988
        39           h38bf         1   UNL       h38        39     0.05821        1.0080 ; qtot   -0.930
        40           h39bf         1   UNL       h39        40     0.05821        1.0080 ; qtot   -0.871
        41           h40bf         1   UNL       h40        41     0.06788        1.0080 ; qtot   -0.804
        42           h41bf         1   UNL       h41        42     0.06198        1.0080 ; qtot   -0.742
        43           h42bf         1   UNL       h42        43     0.06198        1.0080 ; qtot   -0.680
        44           h43bf         1   UNL       h43        44     0.06198        1.0080 ; qtot   -0.618
        45           h44bf         1   UNL       h44        45     0.49590        1.0080 ; qtot   -0.122
        46           h45bf         1   UNL       h45        46     0.12167        1.0080 ; qtot    0.000

[ bonds ]
;       ai        aj funct               r               k
         1         2     1        0.153597   178293.892139
         1        10     1        0.154056   172093.226611
         1        33     1        0.109441   299169.023926
         1        34     1        0.109441   299169.023926
         2         6     1        0.143005   196789.616040
         2        35     1        0.109640   291280.534229
         2        36     1        0.109640   291280.559766
         3         4     1        0.153597   178293.892139
         3         6     1        0.143005   196789.616040
         3        37     1        0.109640   291280.559766
         3        38     1        0.109640   291280.559766
         4        10     1        0.154056   172093.226611
         4        39     1        0.109441   299169.023926
         4        40     1        0.109441   299169.023926
         5         8     1        0.138951   314752.176660
         5        13     1        0.139945   308009.154004
         5        30     1        0.108488   324779.731250
         7        18     1        0.147699   176240.708545
         7        24     1        0.123181   585119.222852
         7        25     1        0.141002   186312.748779
         8        19     1        0.139873   279630.862451
         8        21     1        0.135326   296530.070117
         9        23     1        0.136147   237289.543457
         9        26     1        0.134743   274242.379150
         9        27     1        0.135795   337345.138232
        10        27     1        0.146342   195657.096313
        10        41     1        0.109339   302297.651807
        11        12     1        0.143064   268512.132715
        11        16     1        0.141888   250783.403125
        11        17     1        0.140370   289479.274219
        12        18     1        0.135694   413732.071777
        12        31     1        0.108546   321757.107910
        13        14     1        0.139842   307287.551904
        13        46     1        0.108541   322843.839600
        14        15     1        0.139787   313941.296826
        14        28     1        0.108560   322061.229346
        15        19     1        0.139520   300646.166943
        15        29     1        0.108464   324455.818555
        16        25     1        0.137714   269836.257373
        16        26     1        0.133500   325839.776660
        17        23     1        0.132440   375596.612549
        17        32     1        0.108989   309515.639160
        18        22     1        0.136853   261929.227734
        19        22     1        0.138253   243797.420410
        20        25     1        0.147084   183535.677515
        20        42     1        0.108968   310419.857129
        20        43     1        0.108968   310419.857129
        20        44     1        0.108968   310419.857129
        27        45     1        0.101197   417437.097754

[ angles ]
;       ai        aj        ak funct           theta             cth
         1         2         6     1      112.057350      650.229837
         1         2        35     1      110.599220      486.660342
         1         2        36     1      110.599220      486.660342
         1        10         4     1      109.670731      539.148838
         1        10        27     1      111.413162      594.575027
         1        10        41     1      108.438194      470.541861
         2         1        10     1      110.143417      679.501302
         2         1        33     1      109.782654      502.446362
         2         1        34     1      109.782654      502.446362
         2         6         3     1      112.347824      593.219262
         3         4        10     1      110.143417      679.501302
         3         4        39     1      109.782654      502.446362
         3         4        40     1      109.782654      502.446362
         4         3         6     1      112.057350      650.229837
         4         3        37     1      110.599220      486.660342
         4         3        38     1      110.599220      486.660342
         4        10        27     1      111.413162      594.575027
         4        10        41     1      108.438194      470.541861
         5         8        19     1      121.645996      598.235899
         5         8        21     1      119.487625      553.950402
         5        13        14     1      119.995583      686.291364
         5        13        46     1      119.680565      429.348365
         6         2        35     1      107.737404      465.042190
         6         2        36     1      107.737404      465.042190
         6         3        37     1      107.737404      465.042190
         6         3        38     1      107.737404      465.042190
         7        18        12     1      122.040298      724.098161
         7        18        22     1      116.128212      320.885526
         7        25        16     1      122.902298      565.957632
         7        25        20     1      117.580322      599.849206
         8         5        13     1      119.082947      701.374283
         8         5        30     1      119.040016      421.103518
         8        19        15     1      118.939674      610.836037
         8        19        22     1      119.989136      358.544335
         9        23        17     1      115.954872      932.625577
         9        26        16     1      116.584206      753.082077
         9        27        10     1      124.733902      450.652411
         9        27        45     1      114.010254      481.843533
        10         1        33     1      109.667801      496.043027
        10         1        34     1      109.667801      496.043027
        10         4        39     1      109.667801      496.043027
        10         4        40     1      109.667801      496.043027
        10        27        45     1      118.351364      413.441906
        11        12        18     1      119.936729      510.649743
        11        12        31     1      120.067749      410.568215
        11        16        25     1      119.377609      601.387051
        11        16        26     1      122.348953      733.650316
        11        17        23     1      123.613258      737.001807
        11        17        32     1      119.671646      407.383802
        12        11        16     1      119.790161      689.755154
        12        11        17     1      125.018837      443.693677
        12        18        22     1      121.720322      450.152427
        13         5        30     1      121.979538      418.903783
        13        14        15     1      120.284668      699.495965
        13        14        28     1      120.232849      425.434101
        14        13        46     1      120.374390      426.331507
        14        15        19     1      119.972977      701.494052
        14        15        29     1      121.293045      418.991248
        15        14        28     1      119.586838      427.252535
        15        19        22     1      120.878586      494.309760
        16        11        17     1      115.023621      848.614616
        16        25        20     1      119.145653      531.854578
        18         7        24     1      122.794418      308.084125
        18         7        25     1      115.680199      669.218912
        18        12        31     1      120.082497      430.961544
        18        22        19     1      118.691856      415.238442
        19         8        21     1      118.897705      406.423734
        19        15        29     1      118.782776      413.941668
        23         9        26     1      126.160011      634.095683
        23         9        27     1      116.854393      599.021804
        23        17        32     1      116.349670      436.996283
        24         7        25     1      121.284714      608.542102
        25        16        26     1      118.116966      541.711040
        25        20        42     1      109.003319      486.045664
        25        20        43     1      109.003319      486.045664
        25        20        44     1      109.003319      486.045664
        26         9        27     1      116.440346      534.813882
        27        10        41     1      106.415306      519.306983
        33         1        34     1      107.383133      356.326533
        35         2        36     1      107.873245      341.256574
        37         3        38     1      107.873245      341.256574
        39         4        40     1      107.383141      356.326501
        42        20        43     1      109.918945      341.457392
        42        20        44     1      109.918945      341.457392
        43        20        44     1      109.918945      341.457392

[ dihedrals ] ; propers for gromacs 4.5 or higher, use funct 9
;       ai        aj        ak        al funct           phase               k        pn
         1         2         6         3     9        0.000000        0.656407         1
         1         2         6         3     9      180.000000       -0.958141         2
         1         2         6         3     9        0.000000        0.587773         3
         1         2         6         3     9      180.000000        0.053351         4
         1        10         4         3     9        0.000000        2.989875         1
         1        10         4         3     9      180.000000       -3.284302         2
         1        10         4         3     9        0.000000        0.008029         3
         1        10         4         3     9      180.000000        0.128316         4
         1        10         4        39     9        0.000000       -0.034793         1
         1        10         4        39     9      180.000000        0.064745         2
         1        10         4        39     9        0.000000        0.298914         3
         1        10         4        39     9      180.000000        0.014469         4
         1        10         4        40     9        0.000000       -0.034793         1
         1        10         4        40     9      180.000000        0.064745         2
         1        10         4        40     9        0.000000        0.298914         3
         1        10         4        40     9      180.000000        0.014469         4
         1        10        27         9     9        0.000000       -0.203113         1
         1        10        27         9     9      180.000000       -0.228725         2
         1        10        27         9     9        0.000000        0.538013         3
         1        10        27         9     9      180.000000        0.024242         4
         1        10        27        45     9        0.000000       -0.211311         1
         1        10        27        45     9      180.000000        0.210201         2
         1        10        27        45     9        0.000000        0.038851         3
         1        10        27        45     9      180.000000       -0.020037         4
         2         1        10         4     9        0.000000        2.989875         1
         2         1        10         4     9      180.000000       -3.284302         2
         2         1        10         4     9        0.000000        0.008029         3
         2         1        10         4     9      180.000000        0.128316         4
         2         1        10        27     9        0.000000       -1.913322         1
         2         1        10        27     9      180.000000       -1.584995         2
         2         1        10        27     9        0.000000        0.106704         3
         2         1        10        27     9      180.000000        0.296263         4
         2         1        10        41     9        0.000000       -0.000719         1
         2         1        10        41     9      180.000000       -0.002826         2
         2         1        10        41     9        0.000000        0.168043         3
         2         1        10        41     9      180.000000        0.040671         4
         2         6         3         4     9        0.000000        0.656407         1
         2         6         3         4     9      180.000000       -0.958141         2
         2         6         3         4     9        0.000000        0.587773         3
         2         6         3         4     9      180.000000        0.053351         4
         2         6         3        37     9        0.000000       -0.046698         1
         2         6         3        37     9      180.000000        0.044370         2
         2         6         3        37     9        0.000000        0.473257         3
         2         6         3        37     9      180.000000       -0.000534         4
         2         6         3        38     9        0.000000       -0.046698         1
         2         6         3        38     9      180.000000        0.044370         2
         2         6         3        38     9        0.000000        0.473257         3
         2         6         3        38     9      180.000000       -0.000534         4
         3         4        10        27     9        0.000000       -1.913322         1
         3         4        10        27     9      180.000000       -1.584995         2
         3         4        10        27     9        0.000000        0.106704         3
         3         4        10        27     9      180.000000        0.296263         4
         3         4        10        41     9        0.000000       -0.000719         1
         3         4        10        41     9      180.000000       -0.002826         2
         3         4        10        41     9        0.000000        0.168043         3
         3         4        10        41     9      180.000000        0.040671         4
         3         6         2        35     9        0.000000       -0.046698         1
         3         6         2        35     9      180.000000        0.044371         2
         3         6         2        35     9        0.000000        0.473257         3
         3         6         2        35     9      180.000000       -0.000534         4
         3         6         2        36     9        0.000000       -0.046698         1
         3         6         2        36     9      180.000000        0.044370         2
         3         6         2        36     9        0.000000        0.473257         3
         3         6         2        36     9      180.000000       -0.000534         4
         4        10         1        33     9        0.000000       -0.034793         1
         4        10         1        33     9      180.000000        0.064745         2
         4        10         1        33     9        0.000000        0.298913         3
         4        10         1        33     9      180.000000        0.014470         4
         4        10         1        34     9        0.000000       -0.034793         1
         4        10         1        34     9      180.000000        0.064745         2
         4        10         1        34     9        0.000000        0.298913         3
         4        10         1        34     9      180.000000        0.014470         4
         4        10        27         9     9        0.000000       -0.203113         1
         4        10        27         9     9      180.000000       -0.228725         2
         4        10        27         9     9        0.000000        0.538013         3
         4        10        27         9     9      180.000000        0.024242         4
         4        10        27        45     9        0.000000       -0.211311         1
         4        10        27        45     9      180.000000        0.210201         2
         4        10        27        45     9        0.000000        0.038851         3
         4        10        27        45     9      180.000000       -0.020037         4
         5         8        19        15     9        0.000000       -0.035252         1
         5         8        19        15     9      180.000000       14.994952         2
         5         8        19        15     9        0.000000       -0.810407         3
         5         8        19        15     9      180.000000       -0.172635         4
         5         8        19        22     9        0.000000        0.250465         1
         5         8        19        22     9      180.000000       15.666910         2
         5         8        19        22     9        0.000000        0.199045         3
         5         8        19        22     9      180.000000       -0.242283         4
         5        13        14        15     9        0.000000        0.018255         1
         5        13        14        15     9      180.000000       18.943617         2
         5        13        14        15     9        0.000000       -1.697010         3
         5        13        14        15     9      180.000000       -0.384424         4
         5        13        14        28     9        0.000000        0.083851         1
         5        13        14        28     9      180.000000       14.628776         2
         5        13        14        28     9        0.000000       -0.795895         3
         5        13        14        28     9      180.000000        0.093337         4
         6         2         1        10     9        0.000000        0.588019         1
         6         2         1        10     9      180.000000       -1.553809         2
         6         2         1        10     9        0.000000        0.318518         3
         6         2         1        10     9      180.000000        0.071837         4
         6         2         1        33     9        0.000000       -0.070257         1
         6         2         1        33     9      180.000000        0.057420         2
         6         2         1        33     9        0.000000        0.194875         3
         6         2         1        33     9      180.000000       -0.007724         4
         6         2         1        34     9        0.000000       -0.070257         1
         6         2         1        34     9      180.000000        0.057420         2
         6         2         1        34     9        0.000000        0.194875         3
         6         2         1        34     9      180.000000       -0.007724         4
         6         3         4        10     9        0.000000        0.588019         1
         6         3         4        10     9      180.000000       -1.553809         2
         6         3         4        10     9        0.000000        0.318518         3
         6         3         4        10     9      180.000000        0.071837         4
         6         3         4        39     9        0.000000       -0.070257         1
         6         3         4        39     9      180.000000        0.057420         2
         6         3         4        39     9        0.000000        0.194875         3
         6         3         4        39     9      180.000000       -0.007724         4
         6         3         4        40     9        0.000000       -0.070257         1
         6         3         4        40     9      180.000000        0.057420         2
         6         3         4        40     9        0.000000        0.194875         3
         6         3         4        40     9      180.000000       -0.007724         4
         7        18        12        11     9        0.000000       -0.265137         1
         7        18        12        11     9      180.000000       20.042194         2
         7        18        12        11     9        0.000000       -0.708806         3
         7        18        12        11     9      180.000000       -0.884190         4
         7        18        12        31     9        0.000000       -0.033528         1
         7        18        12        31     9      180.000000       15.197706         2
         7        18        12        31     9        0.000000       -0.108211         3
         7        18        12        31     9      180.000000        0.062165         4
         7        18        22        19     9        0.000000        1.246009         1
         7        18        22        19     9      180.000000        3.345270         2
         7        18        22        19     9        0.000000        1.485535         3
         7        18        22        19     9      180.000000       -0.350516         4
         7        25        16        11     9        0.000000       -0.733726         1
         7        25        16        11     9      180.000000        5.946970         2
         7        25        16        11     9        0.000000       -0.505434         3
         7        25        16        11     9      180.000000        0.176990         4
         7        25        16        26     9        0.000000        0.444340         1
         7        25        16        26     9      180.000000        7.793679         2
         7        25        16        26     9        0.000000        0.430302         3
         7        25        16        26     9      180.000000       -0.208931         4
         7        25        20        42     9        0.000000        0.022638         1
         7        25        20        42     9      180.000000        0.065321         2
         7        25        20        42     9        0.000000       -0.063790         3
         7        25        20        42     9      180.000000        0.031607         4
         7        25        20        43     9        0.000000        0.022638         1
         7        25        20        43     9      180.000000        0.065321         2
         7        25        20        43     9        0.000000       -0.063790         3
         7        25        20        43     9      180.000000        0.031607         4
         7        25        20        44     9        0.000000        0.022638         1
         7        25        20        44     9      180.000000        0.065321         2
         7        25        20        44     9        0.000000       -0.063790         3
         7        25        20        44     9      180.000000        0.031607         4
         8         5        13        14     9        0.000000       -0.057318         1
         8         5        13        14     9      180.000000       18.880930         2
         8         5        13        14     9        0.000000       -1.667109         3
         8         5        13        14     9      180.000000       -0.453625         4
         8         5        13        46     9        0.000000        0.180714         1
         8         5        13        46     9      180.000000       14.750400         2
         8         5        13        46     9        0.000000       -0.679816         3
         8         5        13        46     9      180.000000        0.039905         4
         8        19        15        14     9        0.000000       -0.003068         1
         8        19        15        14     9      180.000000       17.374514         2
         8        19        15        14     9        0.000000       -1.170817         3
         8        19        15        14     9      180.000000       -0.320277         4
         8        19        15        29     9        0.000000        0.188317         1
         8        19        15        29     9      180.000000       12.881927         2
         8        19        15        29     9        0.000000       -0.567292         3
         8        19        15        29     9      180.000000        0.173297         4
         8        19        22        18     9        0.000000        0.341208         1
         8        19        22        18     9      180.000000        2.363621         2
         8        19        22        18     9        0.000000        0.369327         3
         8        19        22        18     9      180.000000       -0.112169         4
         9        23        17        11     9        0.000000       -0.315688         1
         9        23        17        11     9      180.000000       20.909885         2
         9        23        17        11     9        0.000000       -1.463467         3
         9        23        17        11     9      180.000000       -0.227042         4
         9        23        17        32     9        0.000000        0.357883         1
         9        23        17        32     9      180.000000       19.018619         2
         9        23        17        32     9        0.000000       -0.094002         3
         9        23        17        32     9      180.000000       -0.241065         4
         9        26        16        11     9        0.000000       -0.256988         1
         9        26        16        11     9      180.000000       12.342726         2
         9        26        16        11     9        0.000000       -0.532318         3
         9        26        16        11     9      180.000000       -0.015120         4
         9        26        16        25     9        0.000000       -0.268198         1
         9        26        16        25     9      180.000000       16.435082         2
         9        26        16        25     9        0.000000        0.522123         3
         9        26        16        25     9      180.000000       -0.468772         4
         9        27        10        41     9        0.000000       -0.159174         1
         9        27        10        41     9      180.000000        0.215924         2
         9        27        10        41     9        0.000000        0.641603         3
         9        27        10        41     9      180.000000        0.037921         4
        10         1         2        35     9        0.000000       -0.016397         1
        10         1         2        35     9      180.000000        0.056039         2
        10         1         2        35     9        0.000000        0.282909         3
        10         1         2        35     9      180.000000        0.009404         4
        10         1         2        36     9        0.000000       -0.016397         1
        10         1         2        36     9      180.000000        0.056040         2
        10         1         2        36     9        0.000000        0.282910         3
        10         1         2        36     9      180.000000        0.009404         4
        10         4         3        37     9        0.000000       -0.016397         1
        10         4         3        37     9      180.000000        0.056040         2
        10         4         3        37     9        0.000000        0.282910         3
        10         4         3        37     9      180.000000        0.009404         4
        10         4         3        38     9        0.000000       -0.016397         1
        10         4         3        38     9      180.000000        0.056040         2
        10         4         3        38     9        0.000000        0.282910         3
        10         4         3        38     9      180.000000        0.009404         4
        10        27         9        23     9        0.000000        0.387695         1
        10        27         9        23     9      180.000000        7.925193         2
        10        27         9        23     9        0.000000        0.630612         3
        10        27         9        23     9      180.000000       -0.895939         4
        10        27         9        26     9        0.000000       -0.013548         1
        10        27         9        26     9      180.000000        8.370135         2
        10        27         9        26     9        0.000000        0.320738         3
        10        27         9        26     9      180.000000       -0.721346         4
        11        12        18        22     9        0.000000       -0.497504         1
        11        12        18        22     9      180.000000       27.319683         2
        11        12        18        22     9        0.000000       -0.115449         3
        11        12        18        22     9      180.000000       -1.532204         4
        11        16        25        20     9        0.000000       -0.020295         1
        11        16        25        20     9      180.000000        8.784536         2
        11        16        25        20     9        0.000000       -0.090448         3
        11        16        25        20     9      180.000000        0.170647         4
        12        11        16        25     9        0.000000        0.257457         1
        12        11        16        25     9      180.000000       13.068944         2
        12        11        16        25     9        0.000000       -0.102869         3
        12        11        16        25     9      180.000000       -0.472411         4
        12        11        16        26     9        0.000000        0.224114         1
        12        11        16        26     9      180.000000       12.213707         2
        12        11        16        26     9        0.000000        0.125591         3
        12        11        16        26     9      180.000000       -0.327032         4
        12        11        17        23     9        0.000000        0.059530         1
        12        11        17        23     9      180.000000       14.043683         2
        12        11        17        23     9        0.000000        0.087186         3
        12        11        17        23     9      180.000000       -0.510607         4
        12        11        17        32     9        0.000000        0.132621         1
        12        11        17        32     9      180.000000       12.128396         2
        12        11        17        32     9        0.000000        0.200812         3
        12        11        17        32     9      180.000000       -0.110094         4
        12        18         7        24     9        0.000000        0.484356         1
        12        18         7        24     9      180.000000        5.076079         2
        12        18         7        24     9        0.000000       -0.049823         3
        12        18         7        24     9      180.000000       -0.379185         4
        12        18         7        25     9        0.000000        1.749896         1
        12        18         7        25     9      180.000000        2.060494         2
        12        18         7        25     9        0.000000        0.186700         3
        12        18         7        25     9      180.000000        0.011112         4
        12        18        22        19     9        0.000000       -0.069912         1
        12        18        22        19     9      180.000000        4.687535         2
        12        18        22        19     9        0.000000       -1.597136         3
        12        18        22        19     9      180.000000        0.140871         4
        13         5         8        19     9        0.000000       -0.084395         1
        13         5         8        19     9      180.000000       17.450173         2
        13         5         8        19     9        0.000000       -1.202970         3
        13         5         8        19     9      180.000000       -0.334181         4
        13         5         8        21     9        0.000000        0.750830         1
        13         5         8        21     9      180.000000       23.209354         2
        13         5         8        21     9        0.000000        0.552979         3
        13         5         8        21     9      180.000000       -0.546564         4
        13        14        15        19     9        0.000000       -0.095022         1
        13        14        15        19     9      180.000000       18.771551         2
        13        14        15        19     9        0.000000       -1.573705         3
        13        14        15        19     9      180.000000       -0.430898         4
        13        14        15        29     9        0.000000        0.100175         1
        13        14        15        29     9      180.000000       14.267147         2
        13        14        15        29     9        0.000000       -0.697115         3
        13        14        15        29     9      180.000000        0.127222         4
        14        13         5        30     9        0.000000        0.095132         1
        14        13         5        30     9      180.000000       13.829050         2
        14        13         5        30     9        0.000000       -0.722480         3
        14        13         5        30     9      180.000000        0.159636         4
        14        15        19        22     9        0.000000        0.529910         1
        14        15        19        22     9      180.000000       18.825889         2
        14        15        19        22     9        0.000000        0.427315         3
        14        15        19        22     9      180.000000       -0.348413         4
        15        14        13        46     9        0.000000        0.052096         1
        15        14        13        46     9      180.000000       14.797754         2
        15        14        13        46     9        0.000000       -0.856377         3
        15        14        13        46     9      180.000000        0.090985         4
        15        19         8        21     9        0.000000        0.595790         1
        15        19         8        21     9      180.000000       18.235509         2
        15        19         8        21     9        0.000000        0.419471         3
        15        19         8        21     9      180.000000       -0.364926         4
        15        19        22        18     9        0.000000       -0.610484         1
        15        19        22        18     9      180.000000        3.631979         2
        15        19        22        18     9        0.000000       -0.646961         3
        15        19        22        18     9      180.000000        0.128433         4
        16        11        12        18     9        0.000000       -0.799091         1
        16        11        12        18     9      180.000000       11.980908         2
        16        11        12        18     9        0.000000       -1.633730         3
        16        11        12        18     9      180.000000       -0.275690         4
        16        11        12        31     9        0.000000        0.156704         1
        16        11        12        31     9      180.000000        8.220558         2
        16        11        12        31     9        0.000000       -0.341729         3
        16        11        12        31     9      180.000000       -0.142661         4
        16        11        17        23     9        0.000000        0.166299         1
        16        11        17        23     9      180.000000       14.579570         2
        16        11        17        23     9        0.000000       -0.219544         3
        16        11        17        23     9      180.000000       -0.409876         4
        16        11        17        32     9        0.000000        0.221468         1
        16        11        17        32     9      180.000000       12.179784         2
        16        11        17        32     9        0.000000       -0.249136         3
        16        11        17        32     9      180.000000       -0.223888         4
        16        25         7        18     9        0.000000       -1.654043         1
        16        25         7        18     9      180.000000        4.415846         2
        16        25         7        18     9        0.000000        0.016814         3
        16        25         7        18     9      180.000000        0.125022         4
        16        25         7        24     9        0.000000        0.389893         1
        16        25         7        24     9      180.000000       10.254704         2
        16        25         7        24     9        0.000000       -0.621593         3
        16        25         7        24     9      180.000000       -0.268590         4
        16        25        20        42     9        0.000000       -0.080402         1
        16        25        20        42     9      180.000000        0.031038         2
        16        25        20        42     9        0.000000       -0.111293         3
        16        25        20        42     9      180.000000        0.045004         4
        16        25        20        43     9        0.000000       -0.080402         1
        16        25        20        43     9      180.000000        0.031038         2
        16        25        20        43     9        0.000000       -0.111293         3
        16        25        20        43     9      180.000000        0.045004         4
        16        25        20        44     9        0.000000       -0.080402         1
        16        25        20        44     9      180.000000        0.031038         2
        16        25        20        44     9        0.000000       -0.111293         3
        16        25        20        44     9      180.000000        0.045004         4
        16        26         9        23     9        0.000000        0.800267         1
        16        26         9        23     9      180.000000        9.928387         2
        16        26         9        23     9        0.000000        0.587508         3
        16        26         9        23     9      180.000000       -0.404742         4
        16        26         9        27     9        0.000000        0.725271         1
        16        26         9        27     9      180.000000       16.074418         2
        16        26         9        27     9        0.000000        0.250133         3
        16        26         9        27     9      180.000000       -0.995290         4
        17        11        12        18     9        0.000000       -0.634902         1
        17        11        12        18     9      180.000000        8.738636         2
        17        11        12        18     9        0.000000       -0.852321         3
        17        11        12        18     9      180.000000        0.033652         4
        17        11        12        31     9        0.000000       -0.810136         1
        17        11        12        31     9      180.000000        4.826038         2
        17        11        12        31     9        0.000000       -0.379630         3
        17        11        12        31     9      180.000000       -0.055712         4
        17        11        16        25     9        0.000000       -0.381661         1
        17        11        16        25     9      180.000000       11.829441         2
        17        11        16        25     9        0.000000       -0.321284         3
        17        11        16        25     9      180.000000       -0.346176         4
        17        11        16        26     9        0.000000       -0.022521         1
        17        11        16        26     9      180.000000       11.108630         2
        17        11        16        26     9        0.000000        0.149539         3
        17        11        16        26     9      180.000000       -0.272534         4
        17        23         9        26     9        0.000000        0.675522         1
        17        23         9        26     9      180.000000        9.660827         2
        17        23         9        26     9        0.000000        0.779809         3
        17        23         9        26     9      180.000000       -0.509161         4
        17        23         9        27     9        0.000000        1.258938         1
        17        23         9        27     9      180.000000       15.073809         2
        17        23         9        27     9        0.000000        0.447281         3
        17        23         9        27     9      180.000000       -0.788275         4
        18         7        25        20     9        0.000000        0.463790         1
        18         7        25        20     9      180.000000        9.121669         2
        18         7        25        20     9        0.000000        0.308329         3
        18         7        25        20     9      180.000000        0.001686         4
        19         8         5        30     9        0.000000        0.254973         1
        19         8         5        30     9      180.000000       12.750081         2
        19         8         5        30     9        0.000000       -0.422134         3
        19         8         5        30     9      180.000000        0.183495         4
        19        15        14        28     9        0.000000        0.060949         1
        19        15        14        28     9      180.000000       14.852544         2
        19        15        14        28     9        0.000000       -0.520437         3
        19        15        14        28     9      180.000000        0.026504         4
        20        25         7        24     9        0.000000       -0.626932         1
        20        25         7        24     9      180.000000       11.384754         2
        20        25         7        24     9        0.000000       -1.173840         3
        20        25         7        24     9      180.000000        0.509300         4
        20        25        16        26     9        0.000000       -0.851046         1
        20        25        16        26     9      180.000000       10.023890         2
        20        25        16        26     9        0.000000       -0.110559         3
        20        25        16        26     9      180.000000        0.221242         4
        21         8         5        30     9        0.000000        0.264784         1
        21         8         5        30     9      180.000000       16.477453         2
        21         8         5        30     9        0.000000        0.224722         3
        21         8         5        30     9      180.000000        0.170545         4
        21         8        19        22     9        0.000000       -0.158804         1
        21         8        19        22     9      180.000000       21.063882         2
        21         8        19        22     9        0.000000        0.238380         3
        21         8        19        22     9      180.000000       -0.906456         4
        22        18         7        24     9        0.000000       -1.917023         1
        22        18         7        24     9      180.000000       10.924892         2
        22        18         7        24     9        0.000000       -0.430673         3
        22        18         7        24     9      180.000000       -0.290223         4
        22        18         7        25     9        0.000000        0.111386         1
        22        18         7        25     9      180.000000        7.207315         2
        22        18         7        25     9        0.000000        0.351182         3
        22        18         7        25     9      180.000000        0.012035         4
        22        18        12        31     9        0.000000        0.155001         1
        22        18        12        31     9      180.000000       19.751095         2
        22        18        12        31     9        0.000000        0.160795         3
        22        18        12        31     9      180.000000       -0.191934         4
        22        19        15        29     9        0.000000        0.175037         1
        22        19        15        29     9      180.000000       14.405884         2
        22        19        15        29     9        0.000000        0.161166         3
        22        19        15        29     9      180.000000        0.304133         4
        23         9        27        45     9        0.000000       -0.519507         1
        23         9        27        45     9      180.000000       10.556826         2
        23         9        27        45     9        0.000000       -0.449027         3
        23         9        27        45     9      180.000000       -0.622276         4
        26         9        27        45     9        0.000000        0.761521         1
        26         9        27        45     9      180.000000       10.627039         2
        26         9        27        45     9        0.000000       -0.502671         3
        26         9        27        45     9      180.000000       -0.486246         4
        27        10         1        33     9        0.000000        0.103752         1
        27        10         1        33     9      180.000000        0.093489         2
        27        10         1        33     9        0.000000        0.307978         3
        27        10         1        33     9      180.000000       -0.046607         4
        27        10         1        34     9        0.000000        0.103752         1
        27        10         1        34     9      180.000000        0.093489         2
        27        10         1        34     9        0.000000        0.307978         3
        27        10         1        34     9      180.000000       -0.046607         4
        27        10         4        39     9        0.000000        0.103751         1
        27        10         4        39     9      180.000000        0.093489         2
        27        10         4        39     9        0.000000        0.307978         3
        27        10         4        39     9      180.000000       -0.046607         4
        27        10         4        40     9        0.000000        0.103751         1
        27        10         4        40     9      180.000000        0.093489         2
        27        10         4        40     9        0.000000        0.307978         3
        27        10         4        40     9      180.000000       -0.046607         4
        28        14        13        46     9        0.000000       -0.074416         1
        28        14        13        46     9      180.000000       12.106306         2
        28        14        13        46     9        0.000000       -0.645971         3
        28        14        13        46     9      180.000000        0.241485         4
        28        14        15        29     9        0.000000       -0.105606         1
        28        14        15        29     9      180.000000       12.138635         2
        28        14        15        29     9        0.000000       -0.706361         3
        28        14        15        29     9      180.000000        0.240041         4
        30         5        13        46     9        0.000000       -0.066568         1
        30         5        13        46     9      180.000000       11.542747         2
        30         5        13        46     9        0.000000       -0.625898         3
        30         5        13        46     9      180.000000        0.212113         4
        33         1         2        35     9        0.000000       -0.014072         1
        33         1         2        35     9      180.000000       -0.013164         2
        33         1         2        35     9        0.000000        0.310609         3
        33         1         2        35     9      180.000000        0.009990         4
        33         1         2        36     9        0.000000       -0.014071         1
        33         1         2        36     9      180.000000       -0.013162         2
        33         1         2        36     9        0.000000        0.310610         3
        33         1         2        36     9      180.000000        0.009991         4
        33         1        10        41     9        0.000000       -0.005225         1
        33         1        10        41     9      180.000000        0.012814         2
        33         1        10        41     9        0.000000        0.279744         3
        33         1        10        41     9      180.000000        0.088945         4
        34         1         2        35     9        0.000000       -0.014072         1
        34         1         2        35     9      180.000000       -0.013164         2
        34         1         2        35     9        0.000000        0.310609         3
        34         1         2        35     9      180.000000        0.009990         4
        34         1         2        36     9        0.000000       -0.014071         1
        34         1         2        36     9      180.000000       -0.013162         2
        34         1         2        36     9        0.000000        0.310610         3
        34         1         2        36     9      180.000000        0.009991         4
        34         1        10        41     9        0.000000       -0.005225         1
        34         1        10        41     9      180.000000        0.012814         2
        34         1        10        41     9        0.000000        0.279744         3
        34         1        10        41     9      180.000000        0.088945         4
        37         3         4        39     9        0.000000       -0.014072         1
        37         3         4        39     9      180.000000       -0.013164         2
        37         3         4        39     9        0.000000        0.310609         3
        37         3         4        39     9      180.000000        0.009991         4
        37         3         4        40     9        0.000000       -0.014072         1
        37         3         4        40     9      180.000000       -0.013164         2
        37         3         4        40     9        0.000000        0.310609         3
        37         3         4        40     9      180.000000        0.009991         4
        38         3         4        39     9        0.000000       -0.014072         1
        38         3         4        39     9      180.000000       -0.013164         2
        38         3         4        39     9        0.000000        0.310609         3
        38         3         4        39     9      180.000000        0.009991         4
        38         3         4        40     9        0.000000       -0.014072         1
        38         3         4        40     9      180.000000       -0.013164         2
        38         3         4        40     9        0.000000        0.310609         3
        38         3         4        40     9      180.000000        0.009991         4
        39         4        10        41     9        0.000000       -0.005226         1
        39         4        10        41     9      180.000000        0.012815         2
        39         4        10        41     9        0.000000        0.279744         3
        39         4        10        41     9      180.000000        0.088945         4
        40         4        10        41     9        0.000000       -0.005226         1
        40         4        10        41     9      180.000000        0.012815         2
        40         4        10        41     9        0.000000        0.279744         3
        40         4        10        41     9      180.000000        0.088945         4
        41        10        27        45     9        0.000000       -0.695821         1
        41        10        27        45     9      180.000000       -0.162734         2
        41        10        27        45     9        0.000000        0.223778         3
        41        10        27        45     9      180.000000        0.050708         4

[ dihedrals ] ; impropers
;       ai        aj        ak        al funct           phase               k        pn
         5         8        13        30     4      180.000000        0.088667         2
         5        13        30         8     4      180.000000        0.088667         2
         5        30         8        13     4      180.000000        0.088667         2
         7        18        24        25     4      180.000000       20.883039         2
         7        24        25        18     4      180.000000       20.883039         2
         7        25        18        24     4      180.000000       20.883039         2
         9        23        26        27     4      180.000000       27.893333         2
         9        26        27        23     4      180.000000       27.893333         2
         9        27        23        26     4      180.000000       27.893333         2
        12        11        18        31     4      180.000000        2.344824         2
        12        18        31        11     4      180.000000        2.344824         2
        12        31        11        18     4      180.000000        2.344824         2
        13         5        14        46     4      180.000000        1.747702         2
        13        14        46         5     4      180.000000        1.747702         2
        13        46         5        14     4      180.000000        1.747702         2
        14        13        15        28     4      180.000000        0.162223         2
        14        15        28        13     4      180.000000        0.162223         2
        14        28        13        15     4      180.000000        0.162223         2
        15        14        19        29     4      180.000000        0.291057         2
        15        19        29        14     4      180.000000        0.291057         2
        15        29        14        19     4      180.000000        0.291057         2
        16        11        25        26     4      180.000000       14.360232         2
        16        25        26        11     4      180.000000       14.360232         2
        16        26        11        25     4      180.000000       14.360232         2
        17        11        23        32     4      180.000000       13.789488         2
        17        23        32        11     4      180.000000       13.789488         2
        17        32        11        23     4      180.000000       13.789488         2

[ pairs ]
;       ai        aj funct
         1         3     1
         1         9     1
         1        39     1
         1        40     1
         1        45     1
         2         4     1
         2        27     1
         2        37     1
         2        38     1
         2        41     1
         3        27     1
         3        35     1
         3        36     1
         3        41     1
         4         9     1
         4        33     1
         4        34     1
         4        45     1
         5        15     1
         5        22     1
         5        28     1
         6        10     1
         6        33     1
         6        34     1
         6        39     1
         6        40     1
         7        11     1
         7        19     1
         7        26     1
         7        31     1
         7        42     1
         7        43     1
         7        44     1
         8        14     1
         8        18     1
         8        29     1
         8        46     1
         9        11     1
         9        25     1
         9        32     1
         9        41     1
        10        23     1
        10        26     1
        10        35     1
        10        36     1
        10        37     1
        10        38     1
        11        20     1
        11        22     1
        12        19     1
        12        23     1
        12        24     1
        12        25     1
        12        26     1
        12        32     1
        13        19     1
        13        21     1
        13        29     1
        14        22     1
        14        30     1
        15        18     1
        15        21     1
        15        46     1
        16        18     1
        16        23     1
        16        24     1
        16        27     1
        16        31     1
        16        32     1
        16        42     1
        16        43     1
        16        44     1
        17        18     1
        17        25     1
        17        26     1
        17        27     1
        17        31     1
        18        20     1
        19        28     1
        19        30     1
        20        24     1
        20        26     1
        21        22     1
        21        30     1
        22        24     1
        22        25     1
        22        29     1
        22        31     1
        23        45     1
        26        45     1
        27        33     1
        27        34     1
        27        39     1
        27        40     1
        28        29     1
        28        46     1
        30        46     1
        33        35     1
        33        36     1
        33        41     1
        34        35     1
        34        36     1
        34        41     1
        37        39     1
        37        40     1
        38        39     1
        38        40     1
        39        41     1
        40        41     1
        41        45     1
