; ITP file created by ByteFF-ML, 2026-02-21 08:21:53.146298

[ atomtypes ]
;name           bonded.type        at.num        mass        charge   ptype           sigma         epsilon
 c0bf                                   6      0.0000       0.00000       A     3.39630e-01     4.51166e-01
 c1bf                                   6      0.0000       0.00000       A     3.39587e-01     4.49574e-01
 c2bf                                   6      0.0000       0.00000       A     3.39587e-01     4.49574e-01
 c3bf                                   6      0.0000       0.00000       A     3.39630e-01     4.51166e-01
 c4bf                                   6      0.0000       0.00000       A     3.31468e-01     4.12718e-01
 c5bf                                   6      0.0000       0.00000       A     3.31426e-01     4.13955e-01
 c6bf                                   6      0.0000       0.00000       A     3.31482e-01     4.13404e-01
 c7bf                                   6      0.0000       0.00000       A     3.31542e-01     4.14110e-01
 c8bf                                   6      0.0000       0.00000       A     3.39695e-01     4.50827e-01
 c9bf                                   6      0.0000       0.00000       A     3.31327e-01     4.13299e-01
 c10bf                                  6      0.0000       0.00000       A     3.31646e-01     4.12777e-01
 c11bf                                  6      0.0000       0.00000       A     3.31488e-01     4.13497e-01
 c12bf                                  6      0.0000       0.00000       A     3.31494e-01     4.12507e-01
 c13bf                                  6      0.0000       0.00000       A     3.31504e-01     4.12314e-01
 c14bf                                  6      0.0000       0.00000       A     3.31345e-01     4.13845e-01
 c15bf                                  6      0.0000       0.00000       A     3.31262e-01     4.14236e-01
 c16bf                                  6      0.0000       0.00000       A     3.31255e-01     4.17977e-01
 c17bf                                  6      0.0000       0.00000       A     3.31474e-01     4.12750e-01
 c18bf                                  6      0.0000       0.00000       A     3.39751e-01     4.51327e-01
 f19bf                                  9      0.0000       0.00000       A     3.03295e-01     3.47905e-01
 f20bf                                  9      0.0000       0.00000       A     3.03414e-01     3.47611e-01
 o21bf                                  8      0.0000       0.00000       A     3.16224e-01     3.10258e-01
 n22bf                                  7      0.0000       0.00000       A     3.38488e-01     3.93278e-01
 o23bf                                  8      0.0000       0.00000       A     3.04735e-01     6.10225e-01
 n24bf                                  7      0.0000       0.00000       A     3.18016e-01     6.83025e-01
 n25bf                                  7      0.0000       0.00000       A     3.38471e-01     3.92089e-01
 n26bf                                  7      0.0000       0.00000       A     3.27892e-01     6.49415e-01
 h27bf                                  1      0.0000       0.00000       A     2.62547e-01     6.71514e-02
 h28bf                                  1      0.0000       0.00000       A     2.62373e-01     6.68945e-02
 h29bf                                  1      0.0000       0.00000       A     2.62520e-01     6.71642e-02
 h30bf                                  1      0.0000       0.00000       A     2.62452e-01     6.74148e-02
 h31bf                                  1      0.0000       0.00000       A     2.53572e-01     6.74323e-02
 h32bf                                  1      0.0000       0.00000       A     2.59853e-01     8.66729e-02
 h33bf                                  1      0.0000       0.00000       A     2.59853e-01     8.66729e-02
 h34bf                                  1      0.0000       0.00000       A     2.42176e-01     8.66123e-02
 h35bf                                  1      0.0000       0.00000       A     2.42176e-01     8.66123e-02
 h36bf                                  1      0.0000       0.00000       A     2.42176e-01     8.66107e-02
 h37bf                                  1      0.0000       0.00000       A     2.42176e-01     8.66107e-02
 h38bf                                  1      0.0000       0.00000       A     2.59853e-01     8.66729e-02
 h39bf                                  1      0.0000       0.00000       A     2.59853e-01     8.66729e-02
 h40bf                                  1      0.0000       0.00000       A     2.42463e-01     8.53466e-02
 h41bf                                  1      0.0000       0.00000       A     2.42068e-01     8.71789e-02
 h42bf                                  1      0.0000       0.00000       A     2.42068e-01     8.71789e-02
 h43bf                                  1      0.0000       0.00000       A     2.42068e-01     8.71789e-02
 h44bf                                  1      0.0000       0.00000       A     1.10329e-01     4.16526e-02
 s45bf                                 16      0.0000       0.00000       A     4.05565e-01     2.57352e-01
 o46bf                                  8      0.0000       0.00000       A     3.04985e-01     6.10870e-01
 o47bf                                  8      0.0000       0.00000       A     3.04985e-01     6.10870e-01

[ moleculetype ]
;name             nrexcl
 2gg                   3

[ atoms ]
;       nr            type      resi   res      atom      cgnr      charge          mass ; qtot
         1            c0bf         1   UNL        c0         1    -0.07056       12.0110 ; qtot   -0.071
         2            c1bf         1   UNL        c1         2    -0.25840       12.0110 ; qtot   -0.329
         3            c2bf         1   UNL        c2         3    -0.25840       12.0110 ; qtot   -0.587
         4            c3bf         1   UNL        c3         4    -0.07056       12.0110 ; qtot   -0.658
         5            c4bf         1   UNL        c4         5    -0.17396       12.0110 ; qtot   -0.832
         6            c5bf         1   UNL        c5         6     0.56377       12.0110 ; qtot   -0.268
         7            c6bf         1   UNL        c6         7     0.17941       12.0110 ; qtot   -0.089
         8            c7bf         1   UNL        c7         8     0.41036       12.0110 ; qtot    0.322
         9            c8bf         1   UNL        c8         9     0.23693       12.0110 ; qtot    0.559
        10            c9bf         1   UNL        c9        10    -0.27669       12.0110 ; qtot    0.282
        11           c10bf         1   UNL       c10        11    -0.09552       12.0110 ; qtot    0.186
        12           c11bf         1   UNL       c11        12     0.18085       12.0110 ; qtot    0.367
        13           c12bf         1   UNL       c12        13    -0.14500       12.0110 ; qtot    0.222
        14           c13bf         1   UNL       c13        14    -0.07757       12.0110 ; qtot    0.145
        15           c14bf         1   UNL       c14        15     0.30604       12.0110 ; qtot    0.451
        16           c15bf         1   UNL       c15        16     0.20417       12.0110 ; qtot    0.655
        17           c16bf         1   UNL       c16        17     0.00731       12.0110 ; qtot    0.662
        18           c17bf         1   UNL       c17        18     0.05605       12.0110 ; qtot    0.718
        19           c18bf         1   UNL       c18        19     0.08123       12.0110 ; qtot    0.799
        20           f19bf         1   UNL       f19        20    -0.16069       18.9980 ; qtot    0.639
        21           f20bf         1   UNL       f20        21    -0.17407       18.9980 ; qtot    0.465
        22           o21bf         1   UNL       o21        22    -0.21226       15.9990 ; qtot    0.252
        23           n22bf         1   UNL       n22        23    -0.25003       14.0070 ; qtot    0.002
        24           o23bf         1   UNL       o23        24    -0.53096       15.9990 ; qtot   -0.529
        25           n24bf         1   UNL       n24        25    -0.36669       14.0070 ; qtot   -0.895
        26           n25bf         1   UNL       n25        26    -0.30579       14.0070 ; qtot   -1.201
        27           n26bf         1   UNL       n26        27    -0.90724       14.0070 ; qtot   -2.108
        28           h27bf         1   UNL       h27        28     0.14202        1.0080 ; qtot   -1.966
        29           h28bf         1   UNL       h28        29     0.14072        1.0080 ; qtot   -1.826
        30           h29bf         1   UNL       h29        30     0.15735        1.0080 ; qtot   -1.668
        31           h30bf         1   UNL       h30        31     0.20692        1.0080 ; qtot   -1.461
        32           h31bf         1   UNL       h31        32     0.02850        1.0080 ; qtot   -1.433
        33           h32bf         1   UNL       h32        33     0.06780        1.0080 ; qtot   -1.365
        34           h33bf         1   UNL       h33        34     0.06780        1.0080 ; qtot   -1.297
        35           h34bf         1   UNL       h34        35     0.10416        1.0080 ; qtot   -1.193
        36           h35bf         1   UNL       h35        36     0.10416        1.0080 ; qtot   -1.089
        37           h36bf         1   UNL       h36        37     0.10416        1.0080 ; qtot   -0.985
        38           h37bf         1   UNL       h37        38     0.10416        1.0080 ; qtot   -0.881
        39           h38bf         1   UNL       h38        39     0.06780        1.0080 ; qtot   -0.813
        40           h39bf         1   UNL       h39        40     0.06780        1.0080 ; qtot   -0.745
        41           h40bf         1   UNL       h40        41     0.07244        1.0080 ; qtot   -0.672
        42           h41bf         1   UNL       h41        42     0.06198        1.0080 ; qtot   -0.610
        43           h42bf         1   UNL       h42        43     0.06198        1.0080 ; qtot   -0.549
        44           h43bf         1   UNL       h43        44     0.06198        1.0080 ; qtot   -0.487
        45           h44bf         1   UNL       h44        45     0.49808        1.0080 ; qtot    0.012
        46           s45bf         1   UNL       s45        46     0.99528       32.0670 ; qtot    1.007
        47           o46bf         1   UNL       o46        47    -0.50341       15.9990 ; qtot    0.503
        48           o47bf         1   UNL       o47        48    -0.50341       15.9990 ; qtot    0.000

[ bonds ]
;       ai        aj funct               r               k
         1         2     1        0.153075   184310.371265
         1         9     1        0.154382   168520.048730
         1        33     1        0.109359   301031.036719
         1        34     1        0.109359   301031.036719
         2        35     1        0.109229   311554.164453
         2        36     1        0.109229   311554.164453
         2        46     1        0.182201   129216.547656
         3         4     1        0.153075   184310.371265
         3        37     1        0.109229   311554.215527
         3        38     1        0.109229   311554.215527
         3        46     1        0.182201   129216.547656
         4         9     1        0.154382   168520.048730
         4        39     1        0.109359   301031.036719
         4        40     1        0.109359   301031.036719
         5         7     1        0.139038   316524.477588
         5        12     1        0.139274   306854.774512
         5        30     1        0.108387   329224.337451
         6        17     1        0.147699   176240.708545
         6        24     1        0.123181   585119.222852
         6        25     1        0.141002   186312.748779
         7        18     1        0.139881   278838.982227
         7        20     1        0.134995   302917.054395
         8        23     1        0.136147   237289.543457
         8        26     1        0.134743   274242.379150
         8        27     1        0.135920   334318.607715
         9        27     1        0.146155   198755.156274
         9        41     1        0.109343   302910.593506
        10        11     1        0.143064   268512.132715
        10        15     1        0.141888   250783.403125
        10        16     1        0.140370   289479.274219
        11        17     1        0.135694   413732.071777
        11        31     1        0.108546   321757.107910
        12        13     1        0.139128   306394.902246
        12        21     1        0.135607   292150.813379
        13        14     1        0.139766   317517.437012
        13        28     1        0.108444   326597.718066
        14        18     1        0.139462   301245.293066
        14        29     1        0.108442   325811.328320
        15        25     1        0.137714   269836.257373
        15        26     1        0.133500   325839.776660
        16        23     1        0.132440   375596.612549
        16        32     1        0.108989   309515.639160
        17        22     1        0.136853   261929.227734
        18        22     1        0.138211   245996.599658
        19        25     1        0.147084   183535.677515
        19        42     1        0.108968   310419.857129
        19        43     1        0.108968   310419.857129
        19        44     1        0.108968   310419.857129
        27        45     1        0.101203   417483.881738
        46        47     1        0.147495   500538.171484
        46        48     1        0.147495   500538.171484

[ angles ]
;       ai        aj        ak funct           theta             cth
         1         2        35     1      112.558815      494.708969
         1         2        36     1      112.558815      494.708969
         1         2        46     1      110.548317      726.980534
         1         9         4     1      112.584274      549.072240
         1         9        27     1      110.699997      592.465853
         1         9        41     1      108.082703      474.005715
         2         1         9     1      112.929703      602.509535
         2         1        33     1      108.833778      491.310490
         2         1        34     1      108.833778      491.310490
         2        46         3     1      100.936462      719.307718
         2        46        47     1      108.230896      648.565137
         2        46        48     1      108.230896      648.565137
         3         4         9     1      112.929703      602.509535
         3         4        39     1      108.833778      491.310490
         3         4        40     1      108.833778      491.310490
         3        46        47     1      108.230896      648.565137
         3        46        48     1      108.230896      648.565137
         4         3        37     1      112.558815      494.708969
         4         3        38     1      112.558815      494.708969
         4         3        46     1      110.548317      726.980534
         4         9        27     1      110.699997      592.465853
         4         9        41     1      108.082703      474.005715
         5         7        18     1      121.913330      589.890372
         5         7        20     1      119.021118      546.594501
         5        12        13     1      122.381203      586.088790
         5        12        21     1      118.423096      577.916724
         6        17        11     1      122.040298      724.098161
         6        17        22     1      116.128212      320.885526
         6        25        15     1      122.902298      565.957632
         6        25        19     1      117.580322      599.849206
         7         5        12     1      117.606956      745.241738
         7         5        30     1      120.750504      415.603623
         7        18        14     1      118.750526      612.866939
         7        18        22     1      120.038025      362.403759
         8        23        16     1      115.954872      932.625577
         8        26        15     1      116.584206      753.082077
         8        27         9     1      124.371506      453.026182
         8        27        45     1      114.091797      481.248263
         9         1        33     1      109.333031      491.232091
         9         1        34     1      109.333031      491.232027
         9         4        39     1      109.333031      491.232027
         9         4        40     1      109.333031      491.232027
         9        27        45     1      118.443703      410.906327
        10        11        17     1      119.936729      510.649743
        10        11        31     1      120.067749      410.568215
        10        15        25     1      119.377609      601.387051
        10        15        26     1      122.348953      733.650316
        10        16        23     1      123.613258      737.001807
        10        16        32     1      119.671646      407.383802
        11        10        15     1      119.790161      689.755154
        11        10        16     1      125.018837      443.693677
        11        17        22     1      121.720322      450.152427
        12         5        30     1      121.558578      415.206138
        12        13        14     1      118.578598      692.396968
        12        13        28     1      119.971153      420.856319
        13        12        21     1      119.175308      576.491115
        13        14        18     1      120.569313      694.362878
        13        14        29     1      120.676376      412.191418
        14        13        28     1      121.452782      418.521557
        14        18        22     1      120.941628      501.739750
        15        10        16     1      115.023621      848.614616
        15        25        19     1      119.145653      531.854578
        17         6        24     1      122.794418      308.084125
        17         6        25     1      115.680199      669.218912
        17        11        31     1      120.082497      430.961513
        17        22        18     1      118.724243      413.969886
        18         7        20     1      119.050255      408.388879
        18        14        29     1      118.790665      407.974539
        23         8        26     1      126.160011      634.095683
        23         8        27     1      116.756020      601.419675
        23        16        32     1      116.349670      436.996283
        24         6        25     1      121.284714      608.542102
        25        15        26     1      118.116966      541.711040
        25        19        42     1      109.003319      486.045664
        25        19        43     1      109.003319      486.045664
        25        19        44     1      109.003319      486.045664
        26         8        27     1      116.368912      535.970745
        27         9        41     1      106.564659      519.730420
        33         1        34     1      106.963516      356.602685
        35         2        36     1      109.216026      342.440570
        35         2        46     1      105.673996      582.597612
        36         2        46     1      105.673996      582.597612
        37         3        38     1      109.216026      342.440570
        37         3        46     1      105.673996      582.597612
        38         3        46     1      105.673996      582.597612
        39         4        40     1      106.963516      356.602685
        42        19        43     1      109.918945      341.457392
        42        19        44     1      109.918945      341.457392
        43        19        44     1      109.918945      341.457392
        47        46        48     1      120.401901      730.347410

[ dihedrals ] ; propers for gromacs 4.5 or higher, use funct 9
;       ai        aj        ak        al funct           phase               k        pn
         1         2        46         3     9        0.000000        3.218998         1
         1         2        46         3     9      180.000000       -2.576671         2
         1         2        46         3     9        0.000000       -0.416401         3
         1         2        46         3     9      180.000000        0.559855         4
         1         2        46        47     9        0.000000       -0.462220         1
         1         2        46        47     9      180.000000        0.267871         2
         1         2        46        47     9        0.000000        0.087278         3
         1         2        46        47     9      180.000000        0.002249         4
         1         2        46        48     9        0.000000       -0.462220         1
         1         2        46        48     9      180.000000        0.267871         2
         1         2        46        48     9        0.000000        0.087278         3
         1         2        46        48     9      180.000000        0.002249         4
         1         9         4         3     9        0.000000        3.269576         1
         1         9         4         3     9      180.000000       -2.530371         2
         1         9         4         3     9        0.000000       -0.229531         3
         1         9         4         3     9      180.000000        0.241698         4
         1         9         4        39     9        0.000000       -0.067874         1
         1         9         4        39     9      180.000000        0.079772         2
         1         9         4        39     9        0.000000        0.191304         3
         1         9         4        39     9      180.000000        0.020895         4
         1         9         4        40     9        0.000000       -0.067874         1
         1         9         4        40     9      180.000000        0.079772         2
         1         9         4        40     9        0.000000        0.191304         3
         1         9         4        40     9      180.000000        0.020895         4
         1         9        27         8     9        0.000000       -0.777055         1
         1         9        27         8     9      180.000000       -0.083315         2
         1         9        27         8     9        0.000000        0.559314         3
         1         9        27         8     9      180.000000       -0.013007         4
         1         9        27        45     9        0.000000        0.329850         1
         1         9        27        45     9      180.000000        0.323628         2
         1         9        27        45     9        0.000000        0.109835         3
         1         9        27        45     9      180.000000       -0.044961         4
         2         1         9         4     9        0.000000        3.269576         1
         2         1         9         4     9      180.000000       -2.530371         2
         2         1         9         4     9        0.000000       -0.229531         3
         2         1         9         4     9      180.000000        0.241698         4
         2         1         9        27     9        0.000000        0.239966         1
         2         1         9        27     9      180.000000       -1.151403         2
         2         1         9        27     9        0.000000        0.086666         3
         2         1         9        27     9      180.000000        0.352911         4
         2         1         9        41     9        0.000000       -0.207975         1
         2         1         9        41     9      180.000000       -0.128348         2
         2         1         9        41     9        0.000000        0.232443         3
         2         1         9        41     9      180.000000        0.030567         4
         2        46         3         4     9        0.000000        3.218998         1
         2        46         3         4     9      180.000000       -2.576671         2
         2        46         3         4     9        0.000000       -0.416401         3
         2        46         3         4     9      180.000000        0.559855         4
         2        46         3        37     9        0.000000       -0.019947         1
         2        46         3        37     9      180.000000        0.144407         2
         2        46         3        37     9        0.000000       -0.064336         3
         2        46         3        37     9      180.000000       -0.054361         4
         2        46         3        38     9        0.000000       -0.019947         1
         2        46         3        38     9      180.000000        0.144407         2
         2        46         3        38     9        0.000000       -0.064336         3
         2        46         3        38     9      180.000000       -0.054361         4
         3         4         9        27     9        0.000000        0.239966         1
         3         4         9        27     9      180.000000       -1.151403         2
         3         4         9        27     9        0.000000        0.086666         3
         3         4         9        27     9      180.000000        0.352911         4
         3         4         9        41     9        0.000000       -0.207975         1
         3         4         9        41     9      180.000000       -0.128348         2
         3         4         9        41     9        0.000000        0.232443         3
         3         4         9        41     9      180.000000        0.030567         4
         3        46         2        35     9        0.000000       -0.019947         1
         3        46         2        35     9      180.000000        0.144406         2
         3        46         2        35     9        0.000000       -0.064336         3
         3        46         2        35     9      180.000000       -0.054361         4
         3        46         2        36     9        0.000000       -0.019947         1
         3        46         2        36     9      180.000000        0.144406         2
         3        46         2        36     9        0.000000       -0.064336         3
         3        46         2        36     9      180.000000       -0.054361         4
         4         3        46        47     9        0.000000       -0.462220         1
         4         3        46        47     9      180.000000        0.267871         2
         4         3        46        47     9        0.000000        0.087278         3
         4         3        46        47     9      180.000000        0.002249         4
         4         3        46        48     9        0.000000       -0.462220         1
         4         3        46        48     9      180.000000        0.267871         2
         4         3        46        48     9        0.000000        0.087278         3
         4         3        46        48     9      180.000000        0.002249         4
         4         9         1        33     9        0.000000       -0.067873         1
         4         9         1        33     9      180.000000        0.079772         2
         4         9         1        33     9        0.000000        0.191305         3
         4         9         1        33     9      180.000000        0.020896         4
         4         9         1        34     9        0.000000       -0.067873         1
         4         9         1        34     9      180.000000        0.079772         2
         4         9         1        34     9        0.000000        0.191305         3
         4         9         1        34     9      180.000000        0.020896         4
         4         9        27         8     9        0.000000       -0.777055         1
         4         9        27         8     9      180.000000       -0.083315         2
         4         9        27         8     9        0.000000        0.559314         3
         4         9        27         8     9      180.000000       -0.013007         4
         4         9        27        45     9        0.000000        0.329850         1
         4         9        27        45     9      180.000000        0.323628         2
         4         9        27        45     9        0.000000        0.109835         3
         4         9        27        45     9      180.000000       -0.044961         4
         5         7        18        14     9        0.000000       -0.033769         1
         5         7        18        14     9      180.000000       15.070050         2
         5         7        18        14     9        0.000000       -0.822733         3
         5         7        18        14     9      180.000000       -0.166007         4
         5         7        18        22     9        0.000000        0.213515         1
         5         7        18        22     9      180.000000       15.796953         2
         5         7        18        22     9        0.000000        0.046168         3
         5         7        18        22     9      180.000000       -0.230207         4
         5        12        13        14     9        0.000000       -0.084562         1
         5        12        13        14     9      180.000000       17.436868         2
         5        12        13        14     9        0.000000       -1.215052         3
         5        12        13        14     9      180.000000       -0.350359         4
         5        12        13        28     9        0.000000        0.222596         1
         5        12        13        28     9      180.000000       12.990701         2
         5        12        13        28     9        0.000000       -0.533192         3
         5        12        13        28     9      180.000000        0.123340         4
         6        17        11        10     9        0.000000       -0.265137         1
         6        17        11        10     9      180.000000       20.042194         2
         6        17        11        10     9        0.000000       -0.708806         3
         6        17        11        10     9      180.000000       -0.884190         4
         6        17        11        31     9        0.000000       -0.033528         1
         6        17        11        31     9      180.000000       15.197706         2
         6        17        11        31     9        0.000000       -0.108211         3
         6        17        11        31     9      180.000000        0.062165         4
         6        17        22        18     9        0.000000        1.516945         1
         6        17        22        18     9      180.000000        3.262531         2
         6        17        22        18     9        0.000000        1.468404         3
         6        17        22        18     9      180.000000       -0.331072         4
         6        25        15        10     9        0.000000       -0.733726         1
         6        25        15        10     9      180.000000        5.946970         2
         6        25        15        10     9        0.000000       -0.505434         3
         6        25        15        10     9      180.000000        0.176990         4
         6        25        15        26     9        0.000000        0.444340         1
         6        25        15        26     9      180.000000        7.793679         2
         6        25        15        26     9        0.000000        0.430302         3
         6        25        15        26     9      180.000000       -0.208931         4
         6        25        19        42     9        0.000000        0.022638         1
         6        25        19        42     9      180.000000        0.065321         2
         6        25        19        42     9        0.000000       -0.063790         3
         6        25        19        42     9      180.000000        0.031607         4
         6        25        19        43     9        0.000000        0.022638         1
         6        25        19        43     9      180.000000        0.065321         2
         6        25        19        43     9        0.000000       -0.063790         3
         6        25        19        43     9      180.000000        0.031607         4
         6        25        19        44     9        0.000000        0.022638         1
         6        25        19        44     9      180.000000        0.065321         2
         6        25        19        44     9        0.000000       -0.063790         3
         6        25        19        44     9      180.000000        0.031607         4
         7         5        12        13     9        0.000000       -0.101773         1
         7         5        12        13     9      180.000000       17.261374         2
         7         5        12        13     9        0.000000       -1.245547         3
         7         5        12        13     9      180.000000       -0.369105         4
         7         5        12        21     9        0.000000        0.202544         1
         7         5        12        21     9      180.000000       22.811181         2
         7         5        12        21     9        0.000000        0.550755         3
         7         5        12        21     9      180.000000       -0.701551         4
         7        18        14        13     9        0.000000       -0.019541         1
         7        18        14        13     9      180.000000       17.479613         2
         7        18        14        13     9        0.000000       -1.174083         3
         7        18        14        13     9      180.000000       -0.342804         4
         7        18        14        29     9        0.000000        0.103760         1
         7        18        14        29     9      180.000000       12.825624         2
         7        18        14        29     9        0.000000       -0.551225         3
         7        18        14        29     9      180.000000        0.193193         4
         7        18        22        17     9        0.000000        0.381500         1
         7        18        22        17     9      180.000000        2.030263         2
         7        18        22        17     9        0.000000        0.322851         3
         7        18        22        17     9      180.000000       -0.088607         4
         8        23        16        10     9        0.000000       -0.315688         1
         8        23        16        10     9      180.000000       20.909885         2
         8        23        16        10     9        0.000000       -1.463467         3
         8        23        16        10     9      180.000000       -0.227042         4
         8        23        16        32     9        0.000000        0.357883         1
         8        23        16        32     9      180.000000       19.018619         2
         8        23        16        32     9        0.000000       -0.094002         3
         8        23        16        32     9      180.000000       -0.241065         4
         8        26        15        10     9        0.000000       -0.256988         1
         8        26        15        10     9      180.000000       12.342726         2
         8        26        15        10     9        0.000000       -0.532318         3
         8        26        15        10     9      180.000000       -0.015120         4
         8        26        15        25     9        0.000000       -0.268198         1
         8        26        15        25     9      180.000000       16.435082         2
         8        26        15        25     9        0.000000        0.522123         3
         8        26        15        25     9      180.000000       -0.468772         4
         8        27         9        41     9        0.000000       -0.185748         1
         8        27         9        41     9      180.000000        0.351615         2
         8        27         9        41     9        0.000000        0.649164         3
         8        27         9        41     9      180.000000        0.024172         4
         9         1         2        35     9        0.000000       -0.159729         1
         9         1         2        35     9      180.000000        0.114568         2
         9         1         2        35     9        0.000000        0.135345         3
         9         1         2        35     9      180.000000        0.023183         4
         9         1         2        36     9        0.000000       -0.159729         1
         9         1         2        36     9      180.000000        0.114568         2
         9         1         2        36     9        0.000000        0.135345         3
         9         1         2        36     9      180.000000        0.023183         4
         9         1         2        46     9        0.000000        8.178162         1
         9         1         2        46     9      180.000000       -1.778393         2
         9         1         2        46     9        0.000000       -1.172682         3
         9         1         2        46     9      180.000000        0.095975         4
         9         4         3        37     9        0.000000       -0.159730         1
         9         4         3        37     9      180.000000        0.114566         2
         9         4         3        37     9        0.000000        0.135345         3
         9         4         3        37     9      180.000000        0.023183         4
         9         4         3        38     9        0.000000       -0.159730         1
         9         4         3        38     9      180.000000        0.114566         2
         9         4         3        38     9        0.000000        0.135345         3
         9         4         3        38     9      180.000000        0.023183         4
         9         4         3        46     9        0.000000        8.178162         1
         9         4         3        46     9      180.000000       -1.778393         2
         9         4         3        46     9        0.000000       -1.172682         3
         9         4         3        46     9      180.000000        0.095975         4
         9        27         8        23     9        0.000000        0.394228         1
         9        27         8        23     9      180.000000        7.491858         2
         9        27         8        23     9        0.000000        0.644539         3
         9        27         8        23     9      180.000000       -0.886387         4
         9        27         8        26     9        0.000000        0.028928         1
         9        27         8        26     9      180.000000        7.992413         2
         9        27         8        26     9        0.000000        0.312119         3
         9        27         8        26     9      180.000000       -0.734234         4
        10        11        17        22     9        0.000000       -0.497504         1
        10        11        17        22     9      180.000000       27.319683         2
        10        11        17        22     9        0.000000       -0.115449         3
        10        11        17        22     9      180.000000       -1.532204         4
        10        15        25        19     9        0.000000       -0.020295         1
        10        15        25        19     9      180.000000        8.784536         2
        10        15        25        19     9        0.000000       -0.090448         3
        10        15        25        19     9      180.000000        0.170647         4
        11        10        15        25     9        0.000000        0.257457         1
        11        10        15        25     9      180.000000       13.068944         2
        11        10        15        25     9        0.000000       -0.102869         3
        11        10        15        25     9      180.000000       -0.472411         4
        11        10        15        26     9        0.000000        0.224114         1
        11        10        15        26     9      180.000000       12.213707         2
        11        10        15        26     9        0.000000        0.125591         3
        11        10        15        26     9      180.000000       -0.327032         4
        11        10        16        23     9        0.000000        0.059530         1
        11        10        16        23     9      180.000000       14.043683         2
        11        10        16        23     9        0.000000        0.087186         3
        11        10        16        23     9      180.000000       -0.510607         4
        11        10        16        32     9        0.000000        0.132621         1
        11        10        16        32     9      180.000000       12.128396         2
        11        10        16        32     9        0.000000        0.200812         3
        11        10        16        32     9      180.000000       -0.110094         4
        11        17         6        24     9        0.000000        0.484356         1
        11        17         6        24     9      180.000000        5.076079         2
        11        17         6        24     9        0.000000       -0.049823         3
        11        17         6        24     9      180.000000       -0.379185         4
        11        17         6        25     9        0.000000        1.749896         1
        11        17         6        25     9      180.000000        2.060494         2
        11        17         6        25     9        0.000000        0.186700         3
        11        17         6        25     9      180.000000        0.011112         4
        11        17        22        18     9        0.000000       -0.338245         1
        11        17        22        18     9      180.000000        4.737598         2
        11        17        22        18     9        0.000000       -1.572261         3
        11        17        22        18     9      180.000000        0.139854         4
        12         5         7        18     9        0.000000       -0.159544         1
        12         5         7        18     9      180.000000       17.441704         2
        12         5         7        18     9        0.000000       -1.253452         3
        12         5         7        18     9      180.000000       -0.342164         4
        12         5         7        20     9        0.000000        0.535263         1
        12         5         7        20     9      180.000000       22.924715         2
        12         5         7        20     9        0.000000        0.562820         3
        12         5         7        20     9      180.000000       -0.548398         4
        12        13        14        18     9        0.000000       -0.193831         1
        12        13        14        18     9      180.000000       18.718306         2
        12        13        14        18     9        0.000000       -1.470902         3
        12        13        14        18     9      180.000000       -0.444338         4
        12        13        14        29     9        0.000000        0.152983         1
        12        13        14        29     9      180.000000       14.549564         2
        12        13        14        29     9        0.000000       -0.624238         3
        12        13        14        29     9      180.000000        0.081753         4
        13        12         5        30     9        0.000000        0.181711         1
        13        12         5        30     9      180.000000       12.249439         2
        13        12         5        30     9        0.000000       -0.437418         3
        13        12         5        30     9      180.000000        0.175565         4
        13        14        18        22     9        0.000000        0.435183         1
        13        14        18        22     9      180.000000       18.963855         2
        13        14        18        22     9        0.000000        0.317361         3
        13        14        18        22     9      180.000000       -0.395936         4
        14        13        12        21     9        0.000000        0.505280         1
        14        13        12        21     9      180.000000       23.564142         2
        14        13        12        21     9        0.000000        0.449858         3
        14        13        12        21     9      180.000000       -0.661252         4
        14        18         7        20     9        0.000000        0.586984         1
        14        18         7        20     9      180.000000       18.000233         2
        14        18         7        20     9        0.000000        0.390466         3
        14        18         7        20     9      180.000000       -0.347261         4
        14        18        22        17     9        0.000000       -0.612805         1
        14        18        22        17     9      180.000000        3.389636         2
        14        18        22        17     9        0.000000       -0.690547         3
        14        18        22        17     9      180.000000        0.142857         4
        15        10        11        17     9        0.000000       -0.799091         1
        15        10        11        17     9      180.000000       11.980908         2
        15        10        11        17     9        0.000000       -1.633730         3
        15        10        11        17     9      180.000000       -0.275690         4
        15        10        11        31     9        0.000000        0.156704         1
        15        10        11        31     9      180.000000        8.220558         2
        15        10        11        31     9        0.000000       -0.341729         3
        15        10        11        31     9      180.000000       -0.142661         4
        15        10        16        23     9        0.000000        0.166299         1
        15        10        16        23     9      180.000000       14.579570         2
        15        10        16        23     9        0.000000       -0.219544         3
        15        10        16        23     9      180.000000       -0.409876         4
        15        10        16        32     9        0.000000        0.221468         1
        15        10        16        32     9      180.000000       12.179784         2
        15        10        16        32     9        0.000000       -0.249136         3
        15        10        16        32     9      180.000000       -0.223888         4
        15        25         6        17     9        0.000000       -1.654043         1
        15        25         6        17     9      180.000000        4.415846         2
        15        25         6        17     9        0.000000        0.016814         3
        15        25         6        17     9      180.000000        0.125022         4
        15        25         6        24     9        0.000000        0.389893         1
        15        25         6        24     9      180.000000       10.254704         2
        15        25         6        24     9        0.000000       -0.621593         3
        15        25         6        24     9      180.000000       -0.268590         4
        15        25        19        42     9        0.000000       -0.080402         1
        15        25        19        42     9      180.000000        0.031038         2
        15        25        19        42     9        0.000000       -0.111293         3
        15        25        19        42     9      180.000000        0.045004         4
        15        25        19        43     9        0.000000       -0.080402         1
        15        25        19        43     9      180.000000        0.031038         2
        15        25        19        43     9        0.000000       -0.111293         3
        15        25        19        43     9      180.000000        0.045004         4
        15        25        19        44     9        0.000000       -0.080402         1
        15        25        19        44     9      180.000000        0.031038         2
        15        25        19        44     9        0.000000       -0.111293         3
        15        25        19        44     9      180.000000        0.045004         4
        15        26         8        23     9        0.000000        0.800267         1
        15        26         8        23     9      180.000000        9.928387         2
        15        26         8        23     9        0.000000        0.587508         3
        15        26         8        23     9      180.000000       -0.404742         4
        15        26         8        27     9        0.000000        0.713089         1
        15        26         8        27     9      180.000000       16.196058         2
        15        26         8        27     9        0.000000        0.241931         3
        15        26         8        27     9      180.000000       -1.000183         4
        16        10        11        17     9        0.000000       -0.634902         1
        16        10        11        17     9      180.000000        8.738636         2
        16        10        11        17     9        0.000000       -0.852321         3
        16        10        11        17     9      180.000000        0.033652         4
        16        10        11        31     9        0.000000       -0.810136         1
        16        10        11        31     9      180.000000        4.826038         2
        16        10        11        31     9        0.000000       -0.379630         3
        16        10        11        31     9      180.000000       -0.055712         4
        16        10        15        25     9        0.000000       -0.381661         1
        16        10        15        25     9      180.000000       11.829441         2
        16        10        15        25     9        0.000000       -0.321284         3
        16        10        15        25     9      180.000000       -0.346176         4
        16        10        15        26     9        0.000000       -0.022521         1
        16        10        15        26     9      180.000000       11.108630         2
        16        10        15        26     9        0.000000        0.149539         3
        16        10        15        26     9      180.000000       -0.272534         4
        16        23         8        26     9        0.000000        0.675522         1
        16        23         8        26     9      180.000000        9.660827         2
        16        23         8        26     9        0.000000        0.779809         3
        16        23         8        26     9      180.000000       -0.509161         4
        16        23         8        27     9        0.000000        1.258365         1
        16        23         8        27     9      180.000000       15.138708         2
        16        23         8        27     9        0.000000        0.442689         3
        16        23         8        27     9      180.000000       -0.786474         4
        17         6        25        19     9        0.000000        0.463790         1
        17         6        25        19     9      180.000000        9.121669         2
        17         6        25        19     9        0.000000        0.308329         3
        17         6        25        19     9      180.000000        0.001686         4
        18         7         5        30     9        0.000000        0.204291         1
        18         7         5        30     9      180.000000       12.330683         2
        18         7         5        30     9        0.000000       -0.429751         3
        18         7         5        30     9      180.000000        0.180492         4
        18        14        13        28     9        0.000000        0.085472         1
        18        14        13        28     9      180.000000       14.240723         2
        18        14        13        28     9        0.000000       -0.502524         3
        18        14        13        28     9      180.000000        0.093111         4
        19        25         6        24     9        0.000000       -0.626932         1
        19        25         6        24     9      180.000000       11.384754         2
        19        25         6        24     9        0.000000       -1.173840         3
        19        25         6        24     9      180.000000        0.509300         4
        19        25        15        26     9        0.000000       -0.851046         1
        19        25        15        26     9      180.000000       10.023890         2
        19        25        15        26     9        0.000000       -0.110559         3
        19        25        15        26     9      180.000000        0.221242         4
        20         7         5        30     9        0.000000        0.356407         1
        20         7         5        30     9      180.000000       15.755417         2
        20         7         5        30     9        0.000000        0.173168         3
        20         7         5        30     9      180.000000        0.272104         4
        20         7        18        22     9        0.000000       -0.107429         1
        20         7        18        22     9      180.000000       20.900297         2
        20         7        18        22     9        0.000000        0.246361         3
        20         7        18        22     9      180.000000       -0.890880         4
        21        12         5        30     9        0.000000        0.302040         1
        21        12         5        30     9      180.000000       14.938911         2
        21        12         5        30     9        0.000000        0.256433         3
        21        12         5        30     9      180.000000        0.230067         4
        21        12        13        28     9        0.000000        0.256909         1
        21        12        13        28     9      180.000000       16.033530         2
        21        12        13        28     9        0.000000        0.305426         3
        21        12        13        28     9      180.000000        0.139760         4
        22        17         6        24     9        0.000000       -1.917023         1
        22        17         6        24     9      180.000000       10.924892         2
        22        17         6        24     9        0.000000       -0.430673         3
        22        17         6        24     9      180.000000       -0.290223         4
        22        17         6        25     9        0.000000        0.111386         1
        22        17         6        25     9      180.000000        7.207315         2
        22        17         6        25     9        0.000000        0.351182         3
        22        17         6        25     9      180.000000        0.012035         4
        22        17        11        31     9        0.000000        0.155001         1
        22        17        11        31     9      180.000000       19.751095         2
        22        17        11        31     9        0.000000        0.160795         3
        22        17        11        31     9      180.000000       -0.191934         4
        22        18        14        29     9        0.000000        0.172923         1
        22        18        14        29     9      180.000000       14.279827         2
        22        18        14        29     9        0.000000        0.166673         3
        22        18        14        29     9      180.000000        0.327322         4
        23         8        27        45     9        0.000000       -0.638372         1
        23         8        27        45     9      180.000000       10.526881         2
        23         8        27        45     9        0.000000       -0.411520         3
        23         8        27        45     9      180.000000       -0.622864         4
        26         8        27        45     9        0.000000        0.631092         1
        26         8        27        45     9      180.000000       10.590798         2
        26         8        27        45     9        0.000000       -0.468639         3
        26         8        27        45     9      180.000000       -0.485779         4
        27         9         1        33     9        0.000000        0.094260         1
        27         9         1        33     9      180.000000        0.064720         2
        27         9         1        33     9        0.000000        0.334453         3
        27         9         1        33     9      180.000000       -0.027830         4
        27         9         1        34     9        0.000000        0.094260         1
        27         9         1        34     9      180.000000        0.064720         2
        27         9         1        34     9        0.000000        0.334453         3
        27         9         1        34     9      180.000000       -0.027830         4
        27         9         4        39     9        0.000000        0.094259         1
        27         9         4        39     9      180.000000        0.064721         2
        27         9         4        39     9        0.000000        0.334453         3
        27         9         4        39     9      180.000000       -0.027830         4
        27         9         4        40     9        0.000000        0.094259         1
        27         9         4        40     9      180.000000        0.064721         2
        27         9         4        40     9        0.000000        0.334453         3
        27         9         4        40     9      180.000000       -0.027830         4
        28        13        14        29     9        0.000000       -0.156577         1
        28        13        14        29     9      180.000000       11.949669         2
        28        13        14        29     9        0.000000       -0.717197         3
        28        13        14        29     9      180.000000        0.181692         4
        33         1         2        35     9        0.000000        0.031894         1
        33         1         2        35     9      180.000000        0.035118         2
        33         1         2        35     9        0.000000        0.283104         3
        33         1         2        35     9      180.000000        0.002353         4
        33         1         2        36     9        0.000000        0.031894         1
        33         1         2        36     9      180.000000        0.035118         2
        33         1         2        36     9        0.000000        0.283104         3
        33         1         2        36     9      180.000000        0.002353         4
        33         1         2        46     9        0.000000       -0.067922         1
        33         1         2        46     9      180.000000        0.209328         2
        33         1         2        46     9        0.000000       -0.246375         3
        33         1         2        46     9      180.000000        0.161920         4
        33         1         9        41     9        0.000000       -0.026467         1
        33         1         9        41     9      180.000000        0.017701         2
        33         1         9        41     9        0.000000        0.376248         3
        33         1         9        41     9      180.000000        0.033101         4
        34         1         2        35     9        0.000000        0.031894         1
        34         1         2        35     9      180.000000        0.035118         2
        34         1         2        35     9        0.000000        0.283104         3
        34         1         2        35     9      180.000000        0.002353         4
        34         1         2        36     9        0.000000        0.031894         1
        34         1         2        36     9      180.000000        0.035118         2
        34         1         2        36     9        0.000000        0.283104         3
        34         1         2        36     9      180.000000        0.002353         4
        34         1         2        46     9        0.000000       -0.067922         1
        34         1         2        46     9      180.000000        0.209328         2
        34         1         2        46     9        0.000000       -0.246375         3
        34         1         2        46     9      180.000000        0.161920         4
        34         1         9        41     9        0.000000       -0.026467         1
        34         1         9        41     9      180.000000        0.017701         2
        34         1         9        41     9        0.000000        0.376248         3
        34         1         9        41     9      180.000000        0.033101         4
        35         2        46        47     9        0.000000        0.023124         1
        35         2        46        47     9      180.000000        0.001921         2
        35         2        46        47     9        0.000000        0.183576         3
        35         2        46        47     9      180.000000       -0.018109         4
        35         2        46        48     9        0.000000        0.023124         1
        35         2        46        48     9      180.000000        0.001921         2
        35         2        46        48     9        0.000000        0.183576         3
        35         2        46        48     9      180.000000       -0.018109         4
        36         2        46        47     9        0.000000        0.023124         1
        36         2        46        47     9      180.000000        0.001921         2
        36         2        46        47     9        0.000000        0.183576         3
        36         2        46        47     9      180.000000       -0.018109         4
        36         2        46        48     9        0.000000        0.023124         1
        36         2        46        48     9      180.000000        0.001921         2
        36         2        46        48     9        0.000000        0.183576         3
        36         2        46        48     9      180.000000       -0.018109         4
        37         3         4        39     9        0.000000        0.031894         1
        37         3         4        39     9      180.000000        0.035118         2
        37         3         4        39     9        0.000000        0.283104         3
        37         3         4        39     9      180.000000        0.002353         4
        37         3         4        40     9        0.000000        0.031894         1
        37         3         4        40     9      180.000000        0.035118         2
        37         3         4        40     9        0.000000        0.283104         3
        37         3         4        40     9      180.000000        0.002353         4
        37         3        46        47     9        0.000000        0.023123         1
        37         3        46        47     9      180.000000        0.001920         2
        37         3        46        47     9        0.000000        0.183576         3
        37         3        46        47     9      180.000000       -0.018108         4
        37         3        46        48     9        0.000000        0.023123         1
        37         3        46        48     9      180.000000        0.001920         2
        37         3        46        48     9        0.000000        0.183576         3
        37         3        46        48     9      180.000000       -0.018108         4
        38         3         4        39     9        0.000000        0.031894         1
        38         3         4        39     9      180.000000        0.035118         2
        38         3         4        39     9        0.000000        0.283104         3
        38         3         4        39     9      180.000000        0.002353         4
        38         3         4        40     9        0.000000        0.031894         1
        38         3         4        40     9      180.000000        0.035118         2
        38         3         4        40     9        0.000000        0.283104         3
        38         3         4        40     9      180.000000        0.002353         4
        38         3        46        47     9        0.000000        0.023123         1
        38         3        46        47     9      180.000000        0.001920         2
        38         3        46        47     9        0.000000        0.183576         3
        38         3        46        47     9      180.000000       -0.018108         4
        38         3        46        48     9        0.000000        0.023123         1
        38         3        46        48     9      180.000000        0.001920         2
        38         3        46        48     9        0.000000        0.183576         3
        38         3        46        48     9      180.000000       -0.018108         4
        39         4         3        46     9        0.000000       -0.067921         1
        39         4         3        46     9      180.000000        0.209328         2
        39         4         3        46     9        0.000000       -0.246375         3
        39         4         3        46     9      180.000000        0.161920         4
        39         4         9        41     9        0.000000       -0.026467         1
        39         4         9        41     9      180.000000        0.017702         2
        39         4         9        41     9        0.000000        0.376248         3
        39         4         9        41     9      180.000000        0.033101         4
        40         4         3        46     9        0.000000       -0.067921         1
        40         4         3        46     9      180.000000        0.209328         2
        40         4         3        46     9        0.000000       -0.246375         3
        40         4         3        46     9      180.000000        0.161920         4
        40         4         9        41     9        0.000000       -0.026467         1
        40         4         9        41     9      180.000000        0.017702         2
        40         4         9        41     9        0.000000        0.376248         3
        40         4         9        41     9      180.000000        0.033101         4
        41         9        27        45     9        0.000000       -0.675262         1
        41         9        27        45     9      180.000000       -0.115310         2
        41         9        27        45     9        0.000000        0.238520         3
        41         9        27        45     9      180.000000        0.045456         4

[ dihedrals ] ; impropers
;       ai        aj        ak        al funct           phase               k        pn
         6        17        24        25     4      180.000000       20.883039         2
         6        24        25        17     4      180.000000       20.883039         2
         6        25        17        24     4      180.000000       20.883039         2
         8        23        26        27     4      180.000000       27.893333         2
         8        26        27        23     4      180.000000       27.893333         2
         8        27        23        26     4      180.000000       27.893333         2
        11        10        17        31     4      180.000000        2.344824         2
        11        17        31        10     4      180.000000        2.344824         2
        11        31        10        17     4      180.000000        2.344824         2
        12         5        13        21     4      180.000000        0.457749         2
        12        13        21         5     4      180.000000        0.457749         2
        12        21         5        13     4      180.000000        0.457749         2
        14        13        18        29     4      180.000000        1.019580         2
        14        18        29        13     4      180.000000        1.019580         2
        14        29        13        18     4      180.000000        1.019580         2
        15        10        25        26     4      180.000000       14.360232         2
        15        25        26        10     4      180.000000       14.360232         2
        15        26        10        25     4      180.000000       14.360232         2
        16        10        23        32     4      180.000000       13.789488         2
        16        23        32        10     4      180.000000       13.789488         2
        16        32        10        23     4      180.000000       13.789488         2

[ pairs ]
;       ai        aj funct
         1         3     1
         1         8     1
         1        39     1
         1        40     1
         1        45     1
         1        47     1
         1        48     1
         2         4     1
         2        27     1
         2        37     1
         2        38     1
         2        41     1
         3        27     1
         3        35     1
         3        36     1
         3        41     1
         4         8     1
         4        33     1
         4        34     1
         4        45     1
         4        47     1
         4        48     1
         5        14     1
         5        22     1
         5        28     1
         6        10     1
         6        18     1
         6        26     1
         6        31     1
         6        42     1
         6        43     1
         6        44     1
         7        13     1
         7        17     1
         7        21     1
         7        29     1
         8        10     1
         8        25     1
         8        32     1
         8        41     1
         9        23     1
         9        26     1
         9        35     1
         9        36     1
         9        37     1
         9        38     1
         9        46     1
        10        19     1
        10        22     1
        11        18     1
        11        23     1
        11        24     1
        11        25     1
        11        26     1
        11        32     1
        12        18     1
        12        20     1
        12        29     1
        13        22     1
        13        30     1
        14        17     1
        14        20     1
        14        21     1
        15        17     1
        15        23     1
        15        24     1
        15        27     1
        15        31     1
        15        32     1
        15        42     1
        15        43     1
        15        44     1
        16        17     1
        16        25     1
        16        26     1
        16        27     1
        16        31     1
        17        19     1
        18        28     1
        18        30     1
        19        24     1
        19        26     1
        20        22     1
        20        30     1
        21        28     1
        21        30     1
        22        24     1
        22        25     1
        22        29     1
        22        31     1
        23        45     1
        26        45     1
        27        33     1
        27        34     1
        27        39     1
        27        40     1
        28        29     1
        33        35     1
        33        36     1
        33        41     1
        33        46     1
        34        35     1
        34        36     1
        34        41     1
        34        46     1
        35        47     1
        35        48     1
        36        47     1
        36        48     1
        37        39     1
        37        40     1
        37        47     1
        37        48     1
        38        39     1
        38        40     1
        38        47     1
        38        48     1
        39        41     1
        39        46     1
        40        41     1
        40        46     1
        41        45     1
