; ITP file created by ByteFF-ML, 2026-02-21 08:22:46.642379

[ atomtypes ]
;name           bonded.type        at.num        mass        charge   ptype           sigma         epsilon
 c0bf                                   6      0.0000       0.00000       A     3.39825e-01     4.50572e-01
 c1bf                                   6      0.0000       0.00000       A     3.39678e-01     4.51033e-01
 c2bf                                   6      0.0000       0.00000       A     3.39678e-01     4.51033e-01
 c3bf                                   6      0.0000       0.00000       A     3.39825e-01     4.50572e-01
 c4bf                                   6      0.0000       0.00000       A     3.31454e-01     4.12552e-01
 o5bf                                   8      0.0000       0.00000       A     3.15644e-01     3.03351e-01
 c6bf                                   6      0.0000       0.00000       A     3.31593e-01     4.11834e-01
 c7bf                                   6      0.0000       0.00000       A     3.31490e-01     4.13238e-01
 c8bf                                   6      0.0000       0.00000       A     3.31542e-01     4.14110e-01
 c9bf                                   6      0.0000       0.00000       A     3.39714e-01     4.52178e-01
 c10bf                                  6      0.0000       0.00000       A     3.31308e-01     4.13178e-01
 c11bf                                  6      0.0000       0.00000       A     3.31643e-01     4.13562e-01
 c12bf                                  6      0.0000       0.00000       A     3.31475e-01     4.12793e-01
 c13bf                                  6      0.0000       0.00000       A     3.31510e-01     4.12728e-01
 c14bf                                  6      0.0000       0.00000       A     3.31349e-01     4.12357e-01
 c15bf                                  6      0.0000       0.00000       A     3.31314e-01     4.13904e-01
 c16bf                                  6      0.0000       0.00000       A     3.31299e-01     4.14201e-01
 c17bf                                  6      0.0000       0.00000       A     3.31391e-01     4.17039e-01
 c18bf                                  6      0.0000       0.00000       A     3.31569e-01     4.11179e-01
 c19bf                                  6      0.0000       0.00000       A     3.39768e-01     4.51542e-01
 f20bf                                  9      0.0000       0.00000       A     3.03537e-01     3.46116e-01
 s21bf                                 16      0.0000       0.00000       A     3.53751e-01     1.18656e+00
 n22bf                                  7      0.0000       0.00000       A     3.38488e-01     3.93278e-01
 o23bf                                  8      0.0000       0.00000       A     3.04481e-01     6.12951e-01
 n24bf                                  7      0.0000       0.00000       A     3.18082e-01     6.83892e-01
 n25bf                                  7      0.0000       0.00000       A     3.38471e-01     3.92089e-01
 n26bf                                  7      0.0000       0.00000       A     3.27859e-01     6.48853e-01
 h27bf                                  1      0.0000       0.00000       A     2.62483e-01     6.73557e-02
 h28bf                                  1      0.0000       0.00000       A     2.62522e-01     6.76398e-02
 h29bf                                  1      0.0000       0.00000       A     2.62485e-01     6.69870e-02
 h30bf                                  1      0.0000       0.00000       A     2.62708e-01     6.65657e-02
 h31bf                                  1      0.0000       0.00000       A     2.53572e-01     6.74323e-02
 h32bf                                  1      0.0000       0.00000       A     2.59805e-01     8.76130e-02
 h33bf                                  1      0.0000       0.00000       A     2.59805e-01     8.76130e-02
 h34bf                                  1      0.0000       0.00000       A     2.42083e-01     8.71949e-02
 h35bf                                  1      0.0000       0.00000       A     2.42083e-01     8.71949e-02
 h36bf                                  1      0.0000       0.00000       A     2.42083e-01     8.71949e-02
 h37bf                                  1      0.0000       0.00000       A     2.42083e-01     8.71949e-02
 h38bf                                  1      0.0000       0.00000       A     2.59805e-01     8.76130e-02
 h39bf                                  1      0.0000       0.00000       A     2.59805e-01     8.76130e-02
 h40bf                                  1      0.0000       0.00000       A     2.42326e-01     8.58414e-02
 h41bf                                  1      0.0000       0.00000       A     2.42068e-01     8.71789e-02
 h42bf                                  1      0.0000       0.00000       A     2.42068e-01     8.71789e-02
 h43bf                                  1      0.0000       0.00000       A     2.42068e-01     8.71789e-02
 h44bf                                  1      0.0000       0.00000       A     1.10329e-01     4.16526e-02
 h45bf                                  1      0.0000       0.00000       A     2.62469e-01     6.71339e-02

[ moleculetype ]
;name             nrexcl
 2h                    3

[ atoms ]
;       nr            type      resi   res      atom      cgnr      charge          mass ; qtot
         1            c0bf         1   UNL        c0         1    -0.12568       12.0110 ; qtot   -0.126
         2            c1bf         1   UNL        c1         2     0.15457       12.0110 ; qtot    0.029
         3            c2bf         1   UNL        c2         3     0.15457       12.0110 ; qtot    0.183
         4            c3bf         1   UNL        c3         4    -0.12568       12.0110 ; qtot    0.058
         5            c4bf         1   UNL        c4         5    -0.15232       12.0110 ; qtot   -0.095
         6            o5bf         1   UNL        o5         6    -0.46215       15.9990 ; qtot   -0.557
         7            c6bf         1   UNL        c6         7     0.58271       12.0110 ; qtot    0.026
         8            c7bf         1   UNL        c7         8     0.19869       12.0110 ; qtot    0.225
         9            c8bf         1   UNL        c8         9     0.41197       12.0110 ; qtot    0.637
        10            c9bf         1   UNL        c9        10     0.24222       12.0110 ; qtot    0.879
        11           c10bf         1   UNL       c10        11    -0.30243       12.0110 ; qtot    0.576
        12           c11bf         1   UNL       c11        12    -0.01045       12.0110 ; qtot    0.566
        13           c12bf         1   UNL       c12        13    -0.06997       12.0110 ; qtot    0.496
        14           c13bf         1   UNL       c13        14    -0.13384       12.0110 ; qtot    0.362
        15           c14bf         1   UNL       c14        15    -0.05153       12.0110 ; qtot    0.311
        16           c15bf         1   UNL       c15        16     0.31455       12.0110 ; qtot    0.625
        17           c16bf         1   UNL       c16        17     0.20934       12.0110 ; qtot    0.835
        18           c17bf         1   UNL       c17        18    -0.10169       12.0110 ; qtot    0.733
        19           c18bf         1   UNL       c18        19    -0.16825       12.0110 ; qtot    0.565
        20           c19bf         1   UNL       c19        20     0.08111       12.0110 ; qtot    0.646
        21           f20bf         1   UNL       f20        21    -0.17123       18.9980 ; qtot    0.475
        22           s21bf         1   UNL       s21        22    -0.02520       32.0670 ; qtot    0.449
        23           n22bf         1   UNL       n22        23    -0.24822       14.0070 ; qtot    0.201
        24           o23bf         1   UNL       o23        24    -0.53299       15.9990 ; qtot   -0.332
        25           n24bf         1   UNL       n24        25    -0.37171       14.0070 ; qtot   -0.704
        26           n25bf         1   UNL       n25        26    -0.30470       14.0070 ; qtot   -1.008
        27           n26bf         1   UNL       n26        27    -0.90583       14.0070 ; qtot   -1.914
        28           h27bf         1   UNL       h27        28     0.12329        1.0080 ; qtot   -1.791
        29           h28bf         1   UNL       h28        29     0.12930        1.0080 ; qtot   -1.662
        30           h29bf         1   UNL       h29        30     0.13739        1.0080 ; qtot   -1.524
        31           h30bf         1   UNL       h30        31     0.20028        1.0080 ; qtot   -1.324
        32           h31bf         1   UNL       h31        32     0.03001        1.0080 ; qtot   -1.294
        33           h32bf         1   UNL       h32        33     0.05821        1.0080 ; qtot   -1.236
        34           h33bf         1   UNL       h33        34     0.05821        1.0080 ; qtot   -1.177
        35           h34bf         1   UNL       h34        35     0.04708        1.0080 ; qtot   -1.130
        36           h35bf         1   UNL       h35        36     0.04708        1.0080 ; qtot   -1.083
        37           h36bf         1   UNL       h36        37     0.04708        1.0080 ; qtot   -1.036
        38           h37bf         1   UNL       h37        38     0.04708        1.0080 ; qtot   -0.989
        39           h38bf         1   UNL       h38        39     0.05821        1.0080 ; qtot   -0.931
        40           h39bf         1   UNL       h39        40     0.05821        1.0080 ; qtot   -0.873
        41           h40bf         1   UNL       h40        41     0.06788        1.0080 ; qtot   -0.805
        42           h41bf         1   UNL       h41        42     0.06236        1.0080 ; qtot   -0.742
        43           h42bf         1   UNL       h42        43     0.06236        1.0080 ; qtot   -0.680
        44           h43bf         1   UNL       h43        44     0.06236        1.0080 ; qtot   -0.618
        45           h44bf         1   UNL       h44        45     0.49590        1.0080 ; qtot   -0.122
        46           h45bf         1   UNL       h45        46     0.12185        1.0080 ; qtot    0.000

[ bonds ]
;       ai        aj funct               r               k
         1         2     1        0.153597   178293.892139
         1        10     1        0.154056   172093.226611
         1        33     1        0.109441   299169.023926
         1        34     1        0.109441   299169.023926
         2         6     1        0.143005   196789.616040
         2        35     1        0.109640   291280.534229
         2        36     1        0.109640   291280.559766
         3         4     1        0.153597   178293.892139
         3         6     1        0.143005   196789.616040
         3        37     1        0.109640   291280.559766
         3        38     1        0.109640   291280.559766
         4        10     1        0.154056   172093.226611
         4        39     1        0.109441   299169.023926
         4        40     1        0.109441   299169.023926
         5         8     1        0.139024   308646.458105
         5        13     1        0.139857   309556.192090
         5        30     1        0.108491   324651.279590
         7        18     1        0.147492   177593.064478
         7        24     1        0.123127   588050.321191
         7        25     1        0.141317   179606.550635
         8        19     1        0.139965   281621.863184
         8        21     1        0.135455   290082.001074
         9        23     1        0.136147   237289.543457
         9        26     1        0.134743   274242.379150
         9        27     1        0.135795   337345.138232
        10        27     1        0.146342   195657.096313
        10        41     1        0.109339   302297.651807
        11        12     1        0.142763   271029.376660
        11        16     1        0.141877   250694.993652
        11        17     1        0.140586   285126.371777
        12        18     1        0.135995   407993.985449
        12        31     1        0.108576   320489.445801
        13        14     1        0.139899   306182.688867
        13        46     1        0.108561   322590.332715
        14        15     1        0.139705   311270.651465
        14        28     1        0.108563   322067.843457
        15        19     1        0.140284   292681.832031
        15        29     1        0.108518   322208.501855
        16        25     1        0.137563   272733.212598
        16        26     1        0.133470   326568.018408
        17        23     1        0.132300   379783.038574
        17        32     1        0.108978   310096.353027
        18        22     1        0.177734   146968.937378
        19        22     1        0.178677   143521.644678
        20        25     1        0.147140   182367.341992
        20        42     1        0.108958   310615.139404
        20        43     1        0.108958   310615.139404
        20        44     1        0.108958   310615.139404
        27        45     1        0.101197   417437.097754

[ angles ]
;       ai        aj        ak funct           theta             cth
         1         2         6     1      112.057350      650.229837
         1         2        35     1      110.599220      486.660342
         1         2        36     1      110.599220      486.660342
         1        10         4     1      109.670731      539.148838
         1        10        27     1      111.413162      594.575027
         1        10        41     1      108.438194      470.541861
         2         1        10     1      110.143417      679.501302
         2         1        33     1      109.782654      502.446362
         2         1        34     1      109.782654      502.446362
         2         6         3     1      112.347824      593.219262
         3         4        10     1      110.143417      679.501302
         3         4        39     1      109.782654      502.446362
         3         4        40     1      109.782654      502.446362
         4         3         6     1      112.057350      650.229837
         4         3        37     1      110.599220      486.660342
         4         3        38     1      110.599220      486.660342
         4        10        27     1      111.413162      594.575027
         4        10        41     1      108.438194      470.541861
         5         8        19     1      122.469421      547.244102
         5         8        21     1      118.506859      550.149842
         5        13        14     1      120.092934      709.968861
         5        13        46     1      119.620522      427.563002
         6         2        35     1      107.737404      465.042190
         6         2        36     1      107.737404      465.042190
         6         3        37     1      107.737404      465.042190
         6         3        38     1      107.737404      465.042190
         7        18        12     1      120.817284      780.084953
         7        18        22     1      116.688461      412.394757
         7        25        16     1      122.963684      554.711089
         7        25        20     1      117.276596      596.462666
         8         5        13     1      118.913475      695.793786
         8         5        30     1      119.136551      413.033887
         8        19        15     1      117.855225      681.244146
         8        19        22     1      121.114769      336.611374
         9        23        17     1      115.967972      936.990890
         9        26        16     1      116.588272      753.680923
         9        27        10     1      124.733902      450.652411
         9        27        45     1      114.010254      481.843533
        10         1        33     1      109.667801      496.043027
        10         1        34     1      109.667801      496.043027
        10         4        39     1      109.667801      496.043027
        10         4        40     1      109.667801      496.043027
        10        27        45     1      118.351364      413.441906
        11        12        18     1      120.870926      504.308624
        11        12        31     1      119.171097      408.154799
        11        16        25     1      119.371643      632.474332
        11        16        26     1      122.233078      734.898570
        11        17        23     1      123.446999      725.476207
        11        17        32     1      119.674622      399.447890
        12        11        16     1      119.399368      702.036205
        12        11        17     1      125.015358      450.096724
        12        18        22     1      121.997238      322.621348
        13         5        30     1      122.071609      414.488289
        13        14        15     1      119.986191      708.610989
        13        14        28     1      120.299706      421.968460
        14        13        46     1      120.326904      423.388451
        14        15        19     1      120.623398      645.532031
        14        15        29     1      120.522606      418.113633
        15        14        28     1      119.750938      430.148954
        15        19        22     1      120.937393      359.533452
        16        11        17     1      115.065918      842.502820
        16        25        20     1      119.159042      528.109880
        18         7        24     1      123.197754      374.642802
        18         7        25     1      116.193115      653.940251
        18        12        31     1      120.135536      393.577834
        18        22        19     1      101.504189      713.376469
        19         8        21     1      119.171387      465.536843
        19        15        29     1      119.011307      378.076840
        23         9        26     1      126.160011      634.095683
        23         9        27     1      116.854393      599.021804
        23        17        32     1      116.413170      436.375922
        24         7        25     1      120.267685      604.261763
        25        16        26     1      118.161659      543.417749
        25        20        42     1      108.984047      485.460960
        25        20        43     1      108.984047      485.460960
        25        20        44     1      108.984047      485.460960
        26         9        27     1      116.440346      534.813882
        27        10        41     1      106.415306      519.306983
        33         1        34     1      107.383133      356.326533
        35         2        36     1      107.873245      341.256574
        37         3        38     1      107.873245      341.256574
        39         4        40     1      107.383141      356.326501
        42        20        43     1      109.917282      341.224908
        42        20        44     1      109.917282      341.224908
        43        20        44     1      109.917282      341.224908

[ dihedrals ] ; propers for gromacs 4.5 or higher, use funct 9
;       ai        aj        ak        al funct           phase               k        pn
         1         2         6         3     9        0.000000        0.656407         1
         1         2         6         3     9      180.000000       -0.958141         2
         1         2         6         3     9        0.000000        0.587773         3
         1         2         6         3     9      180.000000        0.053351         4
         1        10         4         3     9        0.000000        2.989875         1
         1        10         4         3     9      180.000000       -3.284302         2
         1        10         4         3     9        0.000000        0.008029         3
         1        10         4         3     9      180.000000        0.128316         4
         1        10         4        39     9        0.000000       -0.034793         1
         1        10         4        39     9      180.000000        0.064745         2
         1        10         4        39     9        0.000000        0.298914         3
         1        10         4        39     9      180.000000        0.014469         4
         1        10         4        40     9        0.000000       -0.034793         1
         1        10         4        40     9      180.000000        0.064745         2
         1        10         4        40     9        0.000000        0.298914         3
         1        10         4        40     9      180.000000        0.014469         4
         1        10        27         9     9        0.000000       -0.203113         1
         1        10        27         9     9      180.000000       -0.228725         2
         1        10        27         9     9        0.000000        0.538013         3
         1        10        27         9     9      180.000000        0.024242         4
         1        10        27        45     9        0.000000       -0.211311         1
         1        10        27        45     9      180.000000        0.210201         2
         1        10        27        45     9        0.000000        0.038851         3
         1        10        27        45     9      180.000000       -0.020037         4
         2         1        10         4     9        0.000000        2.989875         1
         2         1        10         4     9      180.000000       -3.284302         2
         2         1        10         4     9        0.000000        0.008029         3
         2         1        10         4     9      180.000000        0.128316         4
         2         1        10        27     9        0.000000       -1.913322         1
         2         1        10        27     9      180.000000       -1.584995         2
         2         1        10        27     9        0.000000        0.106704         3
         2         1        10        27     9      180.000000        0.296263         4
         2         1        10        41     9        0.000000       -0.000719         1
         2         1        10        41     9      180.000000       -0.002826         2
         2         1        10        41     9        0.000000        0.168043         3
         2         1        10        41     9      180.000000        0.040671         4
         2         6         3         4     9        0.000000        0.656407         1
         2         6         3         4     9      180.000000       -0.958141         2
         2         6         3         4     9        0.000000        0.587773         3
         2         6         3         4     9      180.000000        0.053351         4
         2         6         3        37     9        0.000000       -0.046698         1
         2         6         3        37     9      180.000000        0.044370         2
         2         6         3        37     9        0.000000        0.473257         3
         2         6         3        37     9      180.000000       -0.000534         4
         2         6         3        38     9        0.000000       -0.046698         1
         2         6         3        38     9      180.000000        0.044370         2
         2         6         3        38     9        0.000000        0.473257         3
         2         6         3        38     9      180.000000       -0.000534         4
         3         4        10        27     9        0.000000       -1.913322         1
         3         4        10        27     9      180.000000       -1.584995         2
         3         4        10        27     9        0.000000        0.106704         3
         3         4        10        27     9      180.000000        0.296263         4
         3         4        10        41     9        0.000000       -0.000719         1
         3         4        10        41     9      180.000000       -0.002826         2
         3         4        10        41     9        0.000000        0.168043         3
         3         4        10        41     9      180.000000        0.040671         4
         3         6         2        35     9        0.000000       -0.046698         1
         3         6         2        35     9      180.000000        0.044371         2
         3         6         2        35     9        0.000000        0.473257         3
         3         6         2        35     9      180.000000       -0.000534         4
         3         6         2        36     9        0.000000       -0.046698         1
         3         6         2        36     9      180.000000        0.044370         2
         3         6         2        36     9        0.000000        0.473257         3
         3         6         2        36     9      180.000000       -0.000534         4
         4        10         1        33     9        0.000000       -0.034793         1
         4        10         1        33     9      180.000000        0.064745         2
         4        10         1        33     9        0.000000        0.298913         3
         4        10         1        33     9      180.000000        0.014470         4
         4        10         1        34     9        0.000000       -0.034793         1
         4        10         1        34     9      180.000000        0.064745         2
         4        10         1        34     9        0.000000        0.298913         3
         4        10         1        34     9      180.000000        0.014470         4
         4        10        27         9     9        0.000000       -0.203113         1
         4        10        27         9     9      180.000000       -0.228725         2
         4        10        27         9     9        0.000000        0.538013         3
         4        10        27         9     9      180.000000        0.024242         4
         4        10        27        45     9        0.000000       -0.211311         1
         4        10        27        45     9      180.000000        0.210201         2
         4        10        27        45     9        0.000000        0.038851         3
         4        10        27        45     9      180.000000       -0.020037         4
         5         8        19        15     9        0.000000       -0.070208         1
         5         8        19        15     9      180.000000       16.057002         2
         5         8        19        15     9        0.000000       -0.985369         3
         5         8        19        15     9      180.000000       -0.319215         4
         5         8        19        22     9        0.000000       -0.236497         1
         5         8        19        22     9      180.000000       12.531714         2
         5         8        19        22     9        0.000000       -0.146988         3
         5         8        19        22     9      180.000000       -0.177375         4
         5        13        14        15     9        0.000000       -0.056719         1
         5        13        14        15     9      180.000000       19.113309         2
         5        13        14        15     9        0.000000       -1.593233         3
         5        13        14        15     9      180.000000       -0.461393         4
         5        13        14        28     9        0.000000        0.114742         1
         5        13        14        28     9      180.000000       14.357663         2
         5        13        14        28     9        0.000000       -0.712030         3
         5        13        14        28     9      180.000000        0.072258         4
         6         2         1        10     9        0.000000        0.588019         1
         6         2         1        10     9      180.000000       -1.553809         2
         6         2         1        10     9        0.000000        0.318518         3
         6         2         1        10     9      180.000000        0.071837         4
         6         2         1        33     9        0.000000       -0.070257         1
         6         2         1        33     9      180.000000        0.057420         2
         6         2         1        33     9        0.000000        0.194875         3
         6         2         1        33     9      180.000000       -0.007724         4
         6         2         1        34     9        0.000000       -0.070257         1
         6         2         1        34     9      180.000000        0.057420         2
         6         2         1        34     9        0.000000        0.194875         3
         6         2         1        34     9      180.000000       -0.007724         4
         6         3         4        10     9        0.000000        0.588019         1
         6         3         4        10     9      180.000000       -1.553809         2
         6         3         4        10     9        0.000000        0.318518         3
         6         3         4        10     9      180.000000        0.071837         4
         6         3         4        39     9        0.000000       -0.070257         1
         6         3         4        39     9      180.000000        0.057420         2
         6         3         4        39     9        0.000000        0.194875         3
         6         3         4        39     9      180.000000       -0.007724         4
         6         3         4        40     9        0.000000       -0.070257         1
         6         3         4        40     9      180.000000        0.057420         2
         6         3         4        40     9        0.000000        0.194875         3
         6         3         4        40     9      180.000000       -0.007724         4
         7        18        12        11     9        0.000000       -0.393485         1
         7        18        12        11     9      180.000000       20.741879         2
         7        18        12        11     9        0.000000       -1.105035         3
         7        18        12        11     9      180.000000       -0.972218         4
         7        18        12        31     9        0.000000        0.116001         1
         7        18        12        31     9      180.000000       15.746193         2
         7        18        12        31     9        0.000000       -0.111620         3
         7        18        12        31     9      180.000000       -0.090009         4
         7        18        22        19     9        0.000000       -0.870181         1
         7        18        22        19     9      180.000000        4.257883         2
         7        18        22        19     9        0.000000        2.024033         3
         7        18        22        19     9      180.000000       -0.187472         4
         7        25        16        11     9        0.000000       -0.752096         1
         7        25        16        11     9      180.000000        5.951061         2
         7        25        16        11     9        0.000000       -0.501658         3
         7        25        16        11     9      180.000000        0.164215         4
         7        25        16        26     9        0.000000        0.309974         1
         7        25        16        26     9      180.000000        7.458214         2
         7        25        16        26     9        0.000000        0.440260         3
         7        25        16        26     9      180.000000       -0.224793         4
         7        25        20        42     9        0.000000        0.018160         1
         7        25        20        42     9      180.000000        0.056259         2
         7        25        20        42     9        0.000000       -0.084722         3
         7        25        20        42     9      180.000000        0.037840         4
         7        25        20        43     9        0.000000        0.018160         1
         7        25        20        43     9      180.000000        0.056259         2
         7        25        20        43     9        0.000000       -0.084722         3
         7        25        20        43     9      180.000000        0.037840         4
         7        25        20        44     9        0.000000        0.018160         1
         7        25        20        44     9      180.000000        0.056259         2
         7        25        20        44     9        0.000000       -0.084722         3
         7        25        20        44     9      180.000000        0.037840         4
         8         5        13        14     9        0.000000       -0.109930         1
         8         5        13        14     9      180.000000       18.794217         2
         8         5        13        14     9        0.000000       -1.530958         3
         8         5        13        14     9      180.000000       -0.500884         4
         8         5        13        46     9        0.000000        0.186446         1
         8         5        13        46     9      180.000000       14.715916         2
         8         5        13        46     9        0.000000       -0.659803         3
         8         5        13        46     9      180.000000       -0.014482         4
         8        19        15        14     9        0.000000       -0.136473         1
         8        19        15        14     9      180.000000       18.192950         2
         8        19        15        14     9        0.000000       -1.269373         3
         8        19        15        14     9      180.000000       -0.472677         4
         8        19        15        29     9        0.000000        0.118297         1
         8        19        15        29     9      180.000000       13.708689         2
         8        19        15        29     9        0.000000       -0.460125         3
         8        19        15        29     9      180.000000        0.024023         4
         8        19        22        18     9        0.000000        0.496760         1
         8        19        22        18     9      180.000000        1.683712         2
         8        19        22        18     9        0.000000        0.701051         3
         8        19        22        18     9      180.000000       -0.082732         4
         9        23        17        11     9        0.000000       -0.317900         1
         9        23        17        11     9      180.000000       21.200058         2
         9        23        17        11     9        0.000000       -1.492706         3
         9        23        17        11     9      180.000000       -0.218805         4
         9        23        17        32     9        0.000000        0.381851         1
         9        23        17        32     9      180.000000       19.114472         2
         9        23        17        32     9        0.000000       -0.087451         3
         9        23        17        32     9      180.000000       -0.239715         4
         9        26        16        11     9        0.000000       -0.380674         1
         9        26        16        11     9      180.000000       12.281498         2
         9        26        16        11     9        0.000000       -0.364445         3
         9        26        16        11     9      180.000000        0.012697         4
         9        26        16        25     9        0.000000       -0.221418         1
         9        26        16        25     9      180.000000       16.567891         2
         9        26        16        25     9        0.000000        0.588085         3
         9        26        16        25     9      180.000000       -0.466852         4
         9        27        10        41     9        0.000000       -0.159174         1
         9        27        10        41     9      180.000000        0.215924         2
         9        27        10        41     9        0.000000        0.641603         3
         9        27        10        41     9      180.000000        0.037921         4
        10         1         2        35     9        0.000000       -0.016397         1
        10         1         2        35     9      180.000000        0.056039         2
        10         1         2        35     9        0.000000        0.282909         3
        10         1         2        35     9      180.000000        0.009404         4
        10         1         2        36     9        0.000000       -0.016397         1
        10         1         2        36     9      180.000000        0.056040         2
        10         1         2        36     9        0.000000        0.282910         3
        10         1         2        36     9      180.000000        0.009404         4
        10         4         3        37     9        0.000000       -0.016397         1
        10         4         3        37     9      180.000000        0.056040         2
        10         4         3        37     9        0.000000        0.282910         3
        10         4         3        37     9      180.000000        0.009404         4
        10         4         3        38     9        0.000000       -0.016397         1
        10         4         3        38     9      180.000000        0.056040         2
        10         4         3        38     9        0.000000        0.282910         3
        10         4         3        38     9      180.000000        0.009404         4
        10        27         9        23     9        0.000000        0.387695         1
        10        27         9        23     9      180.000000        7.925193         2
        10        27         9        23     9        0.000000        0.630612         3
        10        27         9        23     9      180.000000       -0.895939         4
        10        27         9        26     9        0.000000       -0.013548         1
        10        27         9        26     9      180.000000        8.370135         2
        10        27         9        26     9        0.000000        0.320738         3
        10        27         9        26     9      180.000000       -0.721346         4
        11        12        18        22     9        0.000000        0.038585         1
        11        12        18        22     9      180.000000       22.438309         2
        11        12        18        22     9        0.000000       -0.240275         3
        11        12        18        22     9      180.000000       -1.220194         4
        11        16        25        20     9        0.000000       -0.117132         1
        11        16        25        20     9      180.000000        8.995878         2
        11        16        25        20     9        0.000000       -0.176339         3
        11        16        25        20     9      180.000000        0.184602         4
        12        11        16        25     9        0.000000        0.124699         1
        12        11        16        25     9      180.000000       12.568010         2
        12        11        16        25     9        0.000000       -0.189642         3
        12        11        16        25     9      180.000000       -0.424870         4
        12        11        16        26     9        0.000000        0.268569         1
        12        11        16        26     9      180.000000       11.996871         2
        12        11        16        26     9        0.000000        0.130221         3
        12        11        16        26     9      180.000000       -0.382834         4
        12        11        17        23     9        0.000000        0.109202         1
        12        11        17        23     9      180.000000       13.432913         2
        12        11        17        23     9        0.000000        0.062267         3
        12        11        17        23     9      180.000000       -0.439050         4
        12        11        17        32     9        0.000000        0.077235         1
        12        11        17        32     9      180.000000       11.397651         2
        12        11        17        32     9        0.000000        0.293738         3
        12        11        17        32     9      180.000000       -0.105394         4
        12        18         7        24     9        0.000000        2.149487         1
        12        18         7        24     9      180.000000        4.929362         2
        12        18         7        24     9        0.000000        0.069826         3
        12        18         7        24     9      180.000000       -0.192338         4
        12        18         7        25     9        0.000000        1.174777         1
        12        18         7        25     9      180.000000        2.157364         2
        12        18         7        25     9        0.000000        0.127819         3
        12        18         7        25     9      180.000000        0.092974         4
        12        18        22        19     9        0.000000        2.828224         1
        12        18        22        19     9      180.000000        4.362074         2
        12        18        22        19     9        0.000000       -2.517466         3
        12        18        22        19     9      180.000000        0.401744         4
        13         5         8        19     9        0.000000       -0.048963         1
        13         5         8        19     9      180.000000       17.746515         2
        13         5         8        19     9        0.000000       -1.115180         3
        13         5         8        19     9      180.000000       -0.419687         4
        13         5         8        21     9        0.000000        0.692114         1
        13         5         8        21     9      180.000000       23.555809         2
        13         5         8        21     9        0.000000        0.510803         3
        13         5         8        21     9      180.000000       -0.626345         4
        13        14        15        19     9        0.000000       -0.028386         1
        13        14        15        19     9      180.000000       18.772559         2
        13        14        15        19     9        0.000000       -1.535715         3
        13        14        15        19     9      180.000000       -0.425280         4
        13        14        15        29     9        0.000000        0.082242         1
        13        14        15        29     9      180.000000       14.612626         2
        13        14        15        29     9        0.000000       -0.751189         3
        13        14        15        29     9      180.000000        0.106442         4
        14        13         5        30     9        0.000000        0.150371         1
        14        13         5        30     9      180.000000       13.623507         2
        14        13         5        30     9        0.000000       -0.609903         3
        14        13         5        30     9      180.000000        0.143455         4
        14        15        19        22     9        0.000000       -0.049769         1
        14        15        19        22     9      180.000000       14.888489         2
        14        15        19        22     9        0.000000       -0.119681         3
        14        15        19        22     9      180.000000       -0.194554         4
        15        14        13        46     9        0.000000        0.055537         1
        15        14        13        46     9      180.000000       14.621716         2
        15        14        13        46     9        0.000000       -0.800780         3
        15        14        13        46     9      180.000000        0.063241         4
        15        19         8        21     9        0.000000        0.601461         1
        15        19         8        21     9      180.000000       19.761856         2
        15        19         8        21     9        0.000000        0.420449         3
        15        19         8        21     9      180.000000       -0.520661         4
        15        19        22        18     9        0.000000        0.614249         1
        15        19        22        18     9      180.000000        2.534559         2
        15        19        22        18     9        0.000000       -0.837456         3
        15        19        22        18     9      180.000000        0.182219         4
        16        11        12        18     9        0.000000       -0.670468         1
        16        11        12        18     9      180.000000       12.106380         2
        16        11        12        18     9        0.000000       -1.525950         3
        16        11        12        18     9      180.000000       -0.259530         4
        16        11        12        31     9        0.000000        0.121268         1
        16        11        12        31     9      180.000000        9.351862         2
        16        11        12        31     9        0.000000       -0.271172         3
        16        11        12        31     9      180.000000       -0.211826         4
        16        11        17        23     9        0.000000        0.190144         1
        16        11        17        23     9      180.000000       14.314702         2
        16        11        17        23     9        0.000000       -0.211566         3
        16        11        17        23     9      180.000000       -0.403148         4
        16        11        17        32     9        0.000000        0.257502         1
        16        11        17        32     9      180.000000       11.812051         2
        16        11        17        32     9        0.000000       -0.240623         3
        16        11        17        32     9      180.000000       -0.236052         4
        16        25         7        18     9        0.000000       -0.533877         1
        16        25         7        18     9      180.000000        4.327135         2
        16        25         7        18     9        0.000000        0.242854         3
        16        25         7        18     9      180.000000        0.190254         4
        16        25         7        24     9        0.000000        0.596681         1
        16        25         7        24     9      180.000000        9.559795         2
        16        25         7        24     9        0.000000       -0.527456         3
        16        25         7        24     9      180.000000       -0.230629         4
        16        25        20        42     9        0.000000       -0.087687         1
        16        25        20        42     9      180.000000        0.016240         2
        16        25        20        42     9        0.000000       -0.104828         3
        16        25        20        42     9      180.000000        0.044954         4
        16        25        20        43     9        0.000000       -0.087687         1
        16        25        20        43     9      180.000000        0.016240         2
        16        25        20        43     9        0.000000       -0.104828         3
        16        25        20        43     9      180.000000        0.044954         4
        16        25        20        44     9        0.000000       -0.087687         1
        16        25        20        44     9      180.000000        0.016240         2
        16        25        20        44     9        0.000000       -0.104828         3
        16        25        20        44     9      180.000000        0.044954         4
        16        26         9        23     9        0.000000        0.784903         1
        16        26         9        23     9      180.000000        9.849266         2
        16        26         9        23     9        0.000000        0.581225         3
        16        26         9        23     9      180.000000       -0.408910         4
        16        26         9        27     9        0.000000        0.727729         1
        16        26         9        27     9      180.000000       15.876338         2
        16        26         9        27     9        0.000000        0.240957         3
        16        26         9        27     9      180.000000       -0.983932         4
        17        11        12        18     9        0.000000       -0.609170         1
        17        11        12        18     9      180.000000        8.826537         2
        17        11        12        18     9        0.000000       -0.683793         3
        17        11        12        18     9      180.000000       -0.005762         4
        17        11        12        31     9        0.000000       -0.662764         1
        17        11        12        31     9      180.000000        6.157950         2
        17        11        12        31     9        0.000000       -0.324712         3
        17        11        12        31     9      180.000000        0.014545         4
        17        11        16        25     9        0.000000       -0.426211         1
        17        11        16        25     9      180.000000       11.445907         2
        17        11        16        25     9        0.000000       -0.310378         3
        17        11        16        25     9      180.000000       -0.313441         4
        17        11        16        26     9        0.000000       -0.038863         1
        17        11        16        26     9      180.000000       10.691074         2
        17        11        16        26     9        0.000000        0.138551         3
        17        11        16        26     9      180.000000       -0.268042         4
        17        23         9        26     9        0.000000        0.647089         1
        17        23         9        26     9      180.000000        9.497089         2
        17        23         9        26     9        0.000000        0.786814         3
        17        23         9        26     9      180.000000       -0.503275         4
        17        23         9        27     9        0.000000        1.216314         1
        17        23         9        27     9      180.000000       14.900363         2
        17        23         9        27     9        0.000000        0.440483         3
        17        23         9        27     9      180.000000       -0.787733         4
        18         7        25        20     9        0.000000        1.137550         1
        18         7        25        20     9      180.000000        8.460591         2
        18         7        25        20     9        0.000000        0.368023         3
        18         7        25        20     9      180.000000       -0.081182         4
        19         8         5        30     9        0.000000        0.239208         1
        19         8         5        30     9      180.000000       12.420207         2
        19         8         5        30     9        0.000000       -0.289859         3
        19         8         5        30     9      180.000000        0.169122         4
        19        15        14        28     9        0.000000        0.053696         1
        19        15        14        28     9      180.000000       14.740610         2
        19        15        14        28     9        0.000000       -0.626036         3
        19        15        14        28     9      180.000000        0.036169         4
        20        25         7        24     9        0.000000       -0.692325         1
        20        25         7        24     9      180.000000       11.087691         2
        20        25         7        24     9        0.000000       -0.982898         3
        20        25         7        24     9      180.000000        0.469692         4
        20        25        16        26     9        0.000000       -0.946800         1
        20        25        16        26     9      180.000000       10.022670         2
        20        25        16        26     9        0.000000       -0.120267         3
        20        25        16        26     9      180.000000        0.205381         4
        21         8         5        30     9        0.000000        0.378068         1
        21         8         5        30     9      180.000000       17.133357         2
        21         8         5        30     9        0.000000        0.299018         3
        21         8         5        30     9      180.000000        0.000402         4
        21         8        19        22     9        0.000000       -0.312052         1
        21         8        19        22     9      180.000000       16.536108         2
        21         8        19        22     9        0.000000        0.000812         3
        21         8        19        22     9      180.000000       -0.593362         4
        22        18         7        24     9        0.000000       -1.816620         1
        22        18         7        24     9      180.000000        8.388342         2
        22        18         7        24     9        0.000000       -0.129624         3
        22        18         7        24     9      180.000000       -0.267680         4
        22        18         7        25     9        0.000000        0.181259         1
        22        18         7        25     9      180.000000        4.907793         2
        22        18         7        25     9        0.000000        0.270540         3
        22        18         7        25     9      180.000000        0.082193         4
        22        18        12        31     9        0.000000        0.032279         1
        22        18        12        31     9      180.000000       16.018042         2
        22        18        12        31     9        0.000000        0.029087         3
        22        18        12        31     9      180.000000       -0.025880         4
        22        19        15        29     9        0.000000       -0.001403         1
        22        19        15        29     9      180.000000       12.717015         2
        22        19        15        29     9        0.000000       -0.178112         3
        22        19        15        29     9      180.000000        0.120812         4
        23         9        27        45     9        0.000000       -0.519507         1
        23         9        27        45     9      180.000000       10.556826         2
        23         9        27        45     9        0.000000       -0.449027         3
        23         9        27        45     9      180.000000       -0.622276         4
        26         9        27        45     9        0.000000        0.761521         1
        26         9        27        45     9      180.000000       10.627039         2
        26         9        27        45     9        0.000000       -0.502671         3
        26         9        27        45     9      180.000000       -0.486246         4
        27        10         1        33     9        0.000000        0.103752         1
        27        10         1        33     9      180.000000        0.093489         2
        27        10         1        33     9        0.000000        0.307978         3
        27        10         1        33     9      180.000000       -0.046607         4
        27        10         1        34     9        0.000000        0.103752         1
        27        10         1        34     9      180.000000        0.093489         2
        27        10         1        34     9        0.000000        0.307978         3
        27        10         1        34     9      180.000000       -0.046607         4
        27        10         4        39     9        0.000000        0.103751         1
        27        10         4        39     9      180.000000        0.093489         2
        27        10         4        39     9        0.000000        0.307978         3
        27        10         4        39     9      180.000000       -0.046607         4
        27        10         4        40     9        0.000000        0.103751         1
        27        10         4        40     9      180.000000        0.093489         2
        27        10         4        40     9        0.000000        0.307978         3
        27        10         4        40     9      180.000000       -0.046607         4
        28        14        13        46     9        0.000000       -0.051327         1
        28        14        13        46     9      180.000000       11.922245         2
        28        14        13        46     9        0.000000       -0.610042         3
        28        14        13        46     9      180.000000        0.198791         4
        28        14        15        29     9        0.000000       -0.057473         1
        28        14        15        29     9      180.000000       12.397969         2
        28        14        15        29     9        0.000000       -0.723164         3
        28        14        15        29     9      180.000000        0.212216         4
        30         5        13        46     9        0.000000       -0.025298         1
        30         5        13        46     9      180.000000       11.733326         2
        30         5        13        46     9        0.000000       -0.552640         3
        30         5        13        46     9      180.000000        0.114648         4
        33         1         2        35     9        0.000000       -0.014072         1
        33         1         2        35     9      180.000000       -0.013164         2
        33         1         2        35     9        0.000000        0.310609         3
        33         1         2        35     9      180.000000        0.009990         4
        33         1         2        36     9        0.000000       -0.014071         1
        33         1         2        36     9      180.000000       -0.013162         2
        33         1         2        36     9        0.000000        0.310610         3
        33         1         2        36     9      180.000000        0.009991         4
        33         1        10        41     9        0.000000       -0.005225         1
        33         1        10        41     9      180.000000        0.012814         2
        33         1        10        41     9        0.000000        0.279744         3
        33         1        10        41     9      180.000000        0.088945         4
        34         1         2        35     9        0.000000       -0.014072         1
        34         1         2        35     9      180.000000       -0.013164         2
        34         1         2        35     9        0.000000        0.310609         3
        34         1         2        35     9      180.000000        0.009990         4
        34         1         2        36     9        0.000000       -0.014071         1
        34         1         2        36     9      180.000000       -0.013162         2
        34         1         2        36     9        0.000000        0.310610         3
        34         1         2        36     9      180.000000        0.009991         4
        34         1        10        41     9        0.000000       -0.005225         1
        34         1        10        41     9      180.000000        0.012814         2
        34         1        10        41     9        0.000000        0.279744         3
        34         1        10        41     9      180.000000        0.088945         4
        37         3         4        39     9        0.000000       -0.014072         1
        37         3         4        39     9      180.000000       -0.013164         2
        37         3         4        39     9        0.000000        0.310609         3
        37         3         4        39     9      180.000000        0.009991         4
        37         3         4        40     9        0.000000       -0.014072         1
        37         3         4        40     9      180.000000       -0.013164         2
        37         3         4        40     9        0.000000        0.310609         3
        37         3         4        40     9      180.000000        0.009991         4
        38         3         4        39     9        0.000000       -0.014072         1
        38         3         4        39     9      180.000000       -0.013164         2
        38         3         4        39     9        0.000000        0.310609         3
        38         3         4        39     9      180.000000        0.009991         4
        38         3         4        40     9        0.000000       -0.014072         1
        38         3         4        40     9      180.000000       -0.013164         2
        38         3         4        40     9        0.000000        0.310609         3
        38         3         4        40     9      180.000000        0.009991         4
        39         4        10        41     9        0.000000       -0.005226         1
        39         4        10        41     9      180.000000        0.012815         2
        39         4        10        41     9        0.000000        0.279744         3
        39         4        10        41     9      180.000000        0.088945         4
        40         4        10        41     9        0.000000       -0.005226         1
        40         4        10        41     9      180.000000        0.012815         2
        40         4        10        41     9        0.000000        0.279744         3
        40         4        10        41     9      180.000000        0.088945         4
        41        10        27        45     9        0.000000       -0.695821         1
        41        10        27        45     9      180.000000       -0.162734         2
        41        10        27        45     9        0.000000        0.223778         3
        41        10        27        45     9      180.000000        0.050708         4

[ dihedrals ] ; impropers
;       ai        aj        ak        al funct           phase               k        pn
         5         8        13        30     4      180.000000        0.748049         2
         5        13        30         8     4      180.000000        0.748049         2
         5        30         8        13     4      180.000000        0.748049         2
         7        18        24        25     4      180.000000       25.910254         2
         7        24        25        18     4      180.000000       25.910254         2
         7        25        18        24     4      180.000000       25.910254         2
         9        23        26        27     4      180.000000       27.893333         2
         9        26        27        23     4      180.000000       27.893333         2
         9        27        23        26     4      180.000000       27.893333         2
        12        11        18        31     4      180.000000        6.433130         2
        12        18        31        11     4      180.000000        6.433130         2
        12        31        11        18     4      180.000000        6.433130         2
        13         5        14        46     4      180.000000        4.961955         2
        13        14        46         5     4      180.000000        4.961955         2
        13        46         5        14     4      180.000000        4.961955         2
        14        13        15        28     4      180.000000        1.352327         2
        14        15        28        13     4      180.000000        1.352327         2
        14        28        13        15     4      180.000000        1.352327         2
        15        14        19        29     4      180.000000        2.908801         2
        15        19        29        14     4      180.000000        2.908801         2
        15        29        14        19     4      180.000000        2.908801         2
        16        11        25        26     4      180.000000       15.213748         2
        16        25        26        11     4      180.000000       15.213748         2
        16        26        11        25     4      180.000000       15.213748         2
        17        11        23        32     4      180.000000       16.938484         2
        17        23        32        11     4      180.000000       16.938484         2
        17        32        11        23     4      180.000000       16.938484         2

[ pairs ]
;       ai        aj funct
         1         3     1
         1         9     1
         1        39     1
         1        40     1
         1        45     1
         2         4     1
         2        27     1
         2        37     1
         2        38     1
         2        41     1
         3        27     1
         3        35     1
         3        36     1
         3        41     1
         4         9     1
         4        33     1
         4        34     1
         4        45     1
         5        15     1
         5        22     1
         5        28     1
         6        10     1
         6        33     1
         6        34     1
         6        39     1
         6        40     1
         7        11     1
         7        19     1
         7        26     1
         7        31     1
         7        42     1
         7        43     1
         7        44     1
         8        14     1
         8        18     1
         8        29     1
         8        46     1
         9        11     1
         9        25     1
         9        32     1
         9        41     1
        10        23     1
        10        26     1
        10        35     1
        10        36     1
        10        37     1
        10        38     1
        11        20     1
        11        22     1
        12        19     1
        12        23     1
        12        24     1
        12        25     1
        12        26     1
        12        32     1
        13        19     1
        13        21     1
        13        29     1
        14        22     1
        14        30     1
        15        18     1
        15        21     1
        15        46     1
        16        18     1
        16        23     1
        16        24     1
        16        27     1
        16        31     1
        16        32     1
        16        42     1
        16        43     1
        16        44     1
        17        18     1
        17        25     1
        17        26     1
        17        27     1
        17        31     1
        18        20     1
        19        28     1
        19        30     1
        20        24     1
        20        26     1
        21        22     1
        21        30     1
        22        24     1
        22        25     1
        22        29     1
        22        31     1
        23        45     1
        26        45     1
        27        33     1
        27        34     1
        27        39     1
        27        40     1
        28        29     1
        28        46     1
        30        46     1
        33        35     1
        33        36     1
        33        41     1
        34        35     1
        34        36     1
        34        41     1
        37        39     1
        37        40     1
        38        39     1
        38        40     1
        39        41     1
        40        41     1
        41        45     1
