; ITP file created by ByteFF-ML, 2026-02-21 08:22:51.647614

[ atomtypes ]
;name           bonded.type        at.num        mass        charge   ptype           sigma         epsilon
 c0bf                                   6      0.0000       0.00000       A     3.39825e-01     4.50572e-01
 c1bf                                   6      0.0000       0.00000       A     3.39678e-01     4.51033e-01
 c2bf                                   6      0.0000       0.00000       A     3.39678e-01     4.51033e-01
 c3bf                                   6      0.0000       0.00000       A     3.39825e-01     4.50572e-01
 c4bf                                   6      0.0000       0.00000       A     3.31468e-01     4.12718e-01
 o5bf                                   8      0.0000       0.00000       A     3.15644e-01     3.03351e-01
 c6bf                                   6      0.0000       0.00000       A     3.31464e-01     4.13824e-01
 c7bf                                   6      0.0000       0.00000       A     3.31482e-01     4.13404e-01
 c8bf                                   6      0.0000       0.00000       A     3.31542e-01     4.14110e-01
 c9bf                                   6      0.0000       0.00000       A     3.39714e-01     4.52178e-01
 c10bf                                  6      0.0000       0.00000       A     3.31289e-01     4.13393e-01
 c11bf                                  6      0.0000       0.00000       A     3.31646e-01     4.12777e-01
 c12bf                                  6      0.0000       0.00000       A     3.31488e-01     4.13497e-01
 c13bf                                  6      0.0000       0.00000       A     3.31494e-01     4.12507e-01
 c14bf                                  6      0.0000       0.00000       A     3.31504e-01     4.12314e-01
 c15bf                                  6      0.0000       0.00000       A     3.31443e-01     4.14006e-01
 c16bf                                  6      0.0000       0.00000       A     3.31262e-01     4.14236e-01
 c17bf                                  6      0.0000       0.00000       A     3.31256e-01     4.17640e-01
 c18bf                                  6      0.0000       0.00000       A     3.31474e-01     4.12750e-01
 c19bf                                  6      0.0000       0.00000       A     3.39756e-01     4.53577e-01
 f20bf                                  9      0.0000       0.00000       A     3.03414e-01     3.47611e-01
 o21bf                                  8      0.0000       0.00000       A     3.16224e-01     3.10258e-01
 n22bf                                  7      0.0000       0.00000       A     3.38488e-01     3.93278e-01
 o23bf                                  8      0.0000       0.00000       A     3.04755e-01     6.09869e-01
 n24bf                                  7      0.0000       0.00000       A     3.18229e-01     6.84227e-01
 n25bf                                  7      0.0000       0.00000       A     3.38476e-01     3.92154e-01
 n26bf                                  7      0.0000       0.00000       A     3.27859e-01     6.48853e-01
 h27bf                                  1      0.0000       0.00000       A     2.62547e-01     6.71514e-02
 h28bf                                  1      0.0000       0.00000       A     2.62520e-01     6.71642e-02
 h29bf                                  1      0.0000       0.00000       A     2.62452e-01     6.74148e-02
 h30bf                                  1      0.0000       0.00000       A     2.53572e-01     6.74323e-02
 h31bf                                  1      0.0000       0.00000       A     2.59805e-01     8.76130e-02
 h32bf                                  1      0.0000       0.00000       A     2.59805e-01     8.76130e-02
 h33bf                                  1      0.0000       0.00000       A     2.42083e-01     8.71949e-02
 h34bf                                  1      0.0000       0.00000       A     2.42083e-01     8.71949e-02
 h35bf                                  1      0.0000       0.00000       A     2.42083e-01     8.71949e-02
 h36bf                                  1      0.0000       0.00000       A     2.42083e-01     8.71949e-02
 h37bf                                  1      0.0000       0.00000       A     2.59805e-01     8.76130e-02
 h38bf                                  1      0.0000       0.00000       A     2.59805e-01     8.76130e-02
 h39bf                                  1      0.0000       0.00000       A     2.42326e-01     8.58414e-02
 h40bf                                  1      0.0000       0.00000       A     2.42221e-01     8.77679e-02
 h41bf                                  1      0.0000       0.00000       A     2.42221e-01     8.77679e-02
 h42bf                                  1      0.0000       0.00000       A     1.10329e-01     4.16526e-02
 c43bf                                  6      0.0000       0.00000       A     3.39790e-01     4.50810e-01
 h44bf                                  1      0.0000       0.00000       A     2.59927e-01     8.72411e-02
 h45bf                                  1      0.0000       0.00000       A     2.59927e-01     8.72411e-02
 h46bf                                  1      0.0000       0.00000       A     2.59927e-01     8.72411e-02
 f47bf                                  9      0.0000       0.00000       A     3.03295e-01     3.47905e-01
 h48bf                                  1      0.0000       0.00000       A     2.62373e-01     6.68945e-02

[ moleculetype ]
;name             nrexcl
 2l                    3

[ atoms ]
;       nr            type      resi   res      atom      cgnr      charge          mass ; qtot
         1            c0bf         1   UNL        c0         1    -0.12568       12.0110 ; qtot   -0.126
         2            c1bf         1   UNL        c1         2     0.15457       12.0110 ; qtot    0.029
         3            c2bf         1   UNL        c2         3     0.15457       12.0110 ; qtot    0.183
         4            c3bf         1   UNL        c3         4    -0.12568       12.0110 ; qtot    0.058
         5            c4bf         1   UNL        c4         5    -0.17396       12.0110 ; qtot   -0.116
         6            o5bf         1   UNL        o5         6    -0.46215       15.9990 ; qtot   -0.578
         7            c6bf         1   UNL        c6         7     0.56510       12.0110 ; qtot   -0.013
         8            c7bf         1   UNL        c7         8     0.17941       12.0110 ; qtot    0.166
         9            c8bf         1   UNL        c8         9     0.41180       12.0110 ; qtot    0.578
        10            c9bf         1   UNL        c9        10     0.24222       12.0110 ; qtot    0.820
        11           c10bf         1   UNL       c10        11    -0.27465       12.0110 ; qtot    0.546
        12           c11bf         1   UNL       c11        12    -0.09418       12.0110 ; qtot    0.451
        13           c12bf         1   UNL       c12        13     0.18085       12.0110 ; qtot    0.632
        14           c13bf         1   UNL       c13        14    -0.14500       12.0110 ; qtot    0.487
        15           c14bf         1   UNL       c14        15    -0.07757       12.0110 ; qtot    0.410
        16           c15bf         1   UNL       c15        16     0.30932       12.0110 ; qtot    0.719
        17           c16bf         1   UNL       c16        17     0.20343       12.0110 ; qtot    0.922
        18           c17bf         1   UNL       c17        18     0.00810       12.0110 ; qtot    0.930
        19           c18bf         1   UNL       c18        19     0.05605       12.0110 ; qtot    0.987
        20           c19bf         1   UNL       c19        20     0.09414       12.0110 ; qtot    1.081
        21           f20bf         1   UNL       f20        21    -0.17407       18.9980 ; qtot    0.907
        22           o21bf         1   UNL       o21        22    -0.21296       15.9990 ; qtot    0.694
        23           n22bf         1   UNL       n22        23    -0.25003       14.0070 ; qtot    0.444
        24           o23bf         1   UNL       o23        24    -0.53252       15.9990 ; qtot   -0.089
        25           n24bf         1   UNL       n24        25    -0.37243       14.0070 ; qtot   -0.461
        26           n25bf         1   UNL       n25        26    -0.30322       14.0070 ; qtot   -0.765
        27           n26bf         1   UNL       n26        27    -0.90583       14.0070 ; qtot   -1.670
        28           h27bf         1   UNL       h27        28     0.14202        1.0080 ; qtot   -1.528
        29           h28bf         1   UNL       h28        29     0.15735        1.0080 ; qtot   -1.371
        30           h29bf         1   UNL       h29        30     0.20692        1.0080 ; qtot   -1.164
        31           h30bf         1   UNL       h30        31     0.02850        1.0080 ; qtot   -1.136
        32           h31bf         1   UNL       h31        32     0.05821        1.0080 ; qtot   -1.077
        33           h32bf         1   UNL       h32        33     0.05821        1.0080 ; qtot   -1.019
        34           h33bf         1   UNL       h33        34     0.04708        1.0080 ; qtot   -0.972
        35           h34bf         1   UNL       h34        35     0.04708        1.0080 ; qtot   -0.925
        36           h35bf         1   UNL       h35        36     0.04708        1.0080 ; qtot   -0.878
        37           h36bf         1   UNL       h36        37     0.04708        1.0080 ; qtot   -0.831
        38           h37bf         1   UNL       h37        38     0.05821        1.0080 ; qtot   -0.773
        39           h38bf         1   UNL       h38        39     0.05821        1.0080 ; qtot   -0.714
        40           h39bf         1   UNL       h39        40     0.06788        1.0080 ; qtot   -0.647
        41           h40bf         1   UNL       h40        41     0.07120        1.0080 ; qtot   -0.575
        42           h41bf         1   UNL       h41        42     0.07120        1.0080 ; qtot   -0.504
        43           h42bf         1   UNL       h42        43     0.49590        1.0080 ; qtot   -0.008
        44           c43bf         1   UNL       c43        44    -0.11482       12.0110 ; qtot   -0.123
        45           h44bf         1   UNL       h44        45     0.04767        1.0080 ; qtot   -0.075
        46           h45bf         1   UNL       h45        46     0.04767        1.0080 ; qtot   -0.028
        47           h46bf         1   UNL       h46        47     0.04767        1.0080 ; qtot    0.020
        48           f47bf         1   UNL       f47        48    -0.16069       18.9980 ; qtot   -0.141
        49           h48bf         1   UNL       h48        49     0.14074        1.0080 ; qtot    0.000

[ bonds ]
;       ai        aj funct               r               k
         1         2     1        0.153597   178293.892139
         1        10     1        0.154056   172093.226611
         1        32     1        0.109441   299169.023926
         1        33     1        0.109441   299169.023926
         2         6     1        0.143005   196789.616040
         2        34     1        0.109640   291280.534229
         2        35     1        0.109640   291280.534229
         3         4     1        0.153597   178293.892139
         3         6     1        0.143005   196789.616040
         3        36     1        0.109640   291280.534229
         3        37     1        0.109640   291280.534229
         4        10     1        0.154056   172093.226611
         4        38     1        0.109441   299169.023926
         4        39     1        0.109441   299169.023926
         5         8     1        0.139038   316524.477588
         5        13     1        0.139274   306854.774512
         5        29     1        0.108387   329224.337451
         7        18     1        0.147632   177097.631787
         7        24     1        0.123258   583597.262207
         7        25     1        0.140917   186504.902759
         8        19     1        0.139881   278838.982227
         8        48     1        0.134995   302917.054395
         9        23     1        0.136147   237289.543457
         9        26     1        0.134734   275192.946973
         9        27     1        0.135795   337345.138232
        10        27     1        0.146342   195657.096313
        10        40     1        0.109339   302297.651807
        11        12     1        0.143033   269131.586377
        11        16     1        0.141917   249145.146484
        11        17     1        0.140344   290082.281982
        12        18     1        0.135656   414143.346924
        12        30     1        0.108546   321757.107910
        13        14     1        0.139128   306394.902246
        13        21     1        0.135607   292150.813379
        14        15     1        0.139766   317517.437012
        14        28     1        0.108444   326597.718066
        15        19     1        0.139462   301245.293066
        15        49     1        0.108442   325811.328320
        16        25     1        0.137671   269699.429541
        16        26     1        0.133469   327030.061328
        17        23     1        0.132440   375596.612549
        17        31     1        0.108989   309515.639160
        18        22     1        0.136899   261401.196924
        19        22     1        0.138211   245996.599658
        20        25     1        0.147954   164959.192505
        20        41     1        0.108935   309568.884033
        20        42     1        0.108935   309568.884033
        20        44     1        0.153040   191730.203931
        27        43     1        0.101197   417437.097754
        44        45     1        0.109314   303982.488135
        44        46     1        0.109314   303982.488135
        44        47     1        0.109314   303982.488135

[ angles ]
;       ai        aj        ak funct           theta             cth
         1         2         6     1      112.057350      650.229837
         1         2        34     1      110.599220      486.660342
         1         2        35     1      110.599220      486.660342
         1        10         4     1      109.670731      539.148838
         1        10        27     1      111.413162      594.575027
         1        10        40     1      108.438194      470.541861
         2         1        10     1      110.143417      679.501302
         2         1        32     1      109.782654      502.446362
         2         1        33     1      109.782654      502.446362
         2         6         3     1      112.347824      593.219262
         3         4        10     1      110.143417      679.501302
         3         4        38     1      109.782654      502.446362
         3         4        39     1      109.782654      502.446362
         4         3         6     1      112.057350      650.229837
         4         3        36     1      110.599220      486.660342
         4         3        37     1      110.599220      486.660342
         4        10        27     1      111.413162      594.575027
         4        10        40     1      108.438194      470.541861
         5         8        19     1      121.913330      589.890372
         5         8        48     1      119.021133      546.594438
         5        13        14     1      122.381203      586.088790
         5        13        21     1      118.423096      577.916724
         6         2        34     1      107.737404      465.042190
         6         2        35     1      107.737404      465.042190
         6         3        36     1      107.737404      465.042190
         6         3        37     1      107.737404      465.042190
         7        18        12     1      122.000710      724.013633
         7        18        22     1      116.106911      325.203245
         7        25        16     1      122.834915      592.794452
         7        25        20     1      116.992638      619.774919
         8         5        13     1      117.606956      745.241738
         8         5        29     1      120.750504      415.603623
         8        19        15     1      118.750526      612.866939
         8        19        22     1      120.038025      362.403759
         9        23        17     1      115.954872      932.625577
         9        26        16     1      116.577820      752.242290
         9        27        10     1      124.733902      450.652411
         9        27        43     1      114.010254      481.843533
        10         1        32     1      109.667801      496.043027
        10         1        33     1      109.667801      496.043027
        10         4        38     1      109.667801      496.043027
        10         4        39     1      109.667801      496.043027
        10        27        43     1      118.351364      413.441906
        11        12        18     1      119.910011      513.439736
        11        12        30     1      120.050766      408.504945
        11        16        25     1      119.457932      595.920641
        11        16        26     1      122.295387      728.183204
        11        17        23     1      123.631920      736.077299
        11        17        31     1      119.652893      404.332021
        12        11        16     1      119.960754      693.388510
        12        11        17     1      124.944153      443.965615
        12        18        22     1      121.705467      450.043351
        13         5        29     1      121.558578      415.206138
        13        14        15     1      118.578598      692.396968
        13        14        28     1      119.971153      420.856319
        14        13        21     1      119.175308      576.491115
        14        15        19     1      120.569313      694.362878
        14        15        49     1      120.676376      412.191418
        15        14        28     1      121.452782      418.521557
        15        19        22     1      120.941628      501.739750
        16        11        17     1      115.173683      853.343450
        16        25        20     1      119.655411      530.606324
        18         7        24     1      122.708969      316.467000
        18         7        25     1      115.726395      678.908394
        18        12        30     1      120.089622      428.654586
        18        22        19     1      118.732285      413.925707
        19         8        48     1      119.050255      408.388879
        19        15        49     1      118.790665      407.974571
        20        44        45     1      110.378197      493.671236
        20        44        46     1      110.378197      493.671236
        20        44        47     1      110.378197      493.671236
        23         9        26     1      126.172401      634.401745
        23         9        27     1      116.854393      599.021804
        23        17        31     1      116.349670      436.996283
        24         7        25     1      121.278183      603.466219
        25        16        26     1      118.184311      548.319342
        25        20        41     1      106.638100      518.854625
        25        20        42     1      106.638100      518.854625
        25        20        44     1      111.825256      616.941704
        26         9        27     1      116.398056      532.239262
        27        10        40     1      106.415306      519.306983
        32         1        33     1      107.383133      356.326533
        34         2        35     1      107.873245      341.256574
        36         3        37     1      107.873245      341.256574
        38         4        39     1      107.383141      356.326501
        41        20        42     1      109.102890      338.295546
        41        20        44     1      110.833740      465.364691
        42        20        44     1      110.833740      465.364691
        45        44        46     1      108.500839      362.437180
        45        44        47     1      108.500839      362.437180
        46        44        47     1      108.500839      362.437149

[ dihedrals ] ; propers for gromacs 4.5 or higher, use funct 9
;       ai        aj        ak        al funct           phase               k        pn
         1         2         6         3     9        0.000000        0.656407         1
         1         2         6         3     9      180.000000       -0.958141         2
         1         2         6         3     9        0.000000        0.587773         3
         1         2         6         3     9      180.000000        0.053351         4
         1        10         4         3     9        0.000000        2.989875         1
         1        10         4         3     9      180.000000       -3.284302         2
         1        10         4         3     9        0.000000        0.008029         3
         1        10         4         3     9      180.000000        0.128316         4
         1        10         4        38     9        0.000000       -0.034793         1
         1        10         4        38     9      180.000000        0.064745         2
         1        10         4        38     9        0.000000        0.298914         3
         1        10         4        38     9      180.000000        0.014469         4
         1        10         4        39     9        0.000000       -0.034793         1
         1        10         4        39     9      180.000000        0.064745         2
         1        10         4        39     9        0.000000        0.298914         3
         1        10         4        39     9      180.000000        0.014469         4
         1        10        27         9     9        0.000000       -0.203113         1
         1        10        27         9     9      180.000000       -0.228725         2
         1        10        27         9     9        0.000000        0.538013         3
         1        10        27         9     9      180.000000        0.024242         4
         1        10        27        43     9        0.000000       -0.211311         1
         1        10        27        43     9      180.000000        0.210201         2
         1        10        27        43     9        0.000000        0.038851         3
         1        10        27        43     9      180.000000       -0.020037         4
         2         1        10         4     9        0.000000        2.989875         1
         2         1        10         4     9      180.000000       -3.284302         2
         2         1        10         4     9        0.000000        0.008029         3
         2         1        10         4     9      180.000000        0.128316         4
         2         1        10        27     9        0.000000       -1.913322         1
         2         1        10        27     9      180.000000       -1.584995         2
         2         1        10        27     9        0.000000        0.106704         3
         2         1        10        27     9      180.000000        0.296263         4
         2         1        10        40     9        0.000000       -0.000719         1
         2         1        10        40     9      180.000000       -0.002826         2
         2         1        10        40     9        0.000000        0.168043         3
         2         1        10        40     9      180.000000        0.040671         4
         2         6         3         4     9        0.000000        0.656407         1
         2         6         3         4     9      180.000000       -0.958141         2
         2         6         3         4     9        0.000000        0.587773         3
         2         6         3         4     9      180.000000        0.053351         4
         2         6         3        36     9        0.000000       -0.046698         1
         2         6         3        36     9      180.000000        0.044371         2
         2         6         3        36     9        0.000000        0.473257         3
         2         6         3        36     9      180.000000       -0.000534         4
         2         6         3        37     9        0.000000       -0.046698         1
         2         6         3        37     9      180.000000        0.044371         2
         2         6         3        37     9        0.000000        0.473257         3
         2         6         3        37     9      180.000000       -0.000534         4
         3         4        10        27     9        0.000000       -1.913322         1
         3         4        10        27     9      180.000000       -1.584995         2
         3         4        10        27     9        0.000000        0.106704         3
         3         4        10        27     9      180.000000        0.296263         4
         3         4        10        40     9        0.000000       -0.000719         1
         3         4        10        40     9      180.000000       -0.002826         2
         3         4        10        40     9        0.000000        0.168043         3
         3         4        10        40     9      180.000000        0.040671         4
         3         6         2        34     9        0.000000       -0.046698         1
         3         6         2        34     9      180.000000        0.044371         2
         3         6         2        34     9        0.000000        0.473257         3
         3         6         2        34     9      180.000000       -0.000534         4
         3         6         2        35     9        0.000000       -0.046698         1
         3         6         2        35     9      180.000000        0.044371         2
         3         6         2        35     9        0.000000        0.473257         3
         3         6         2        35     9      180.000000       -0.000534         4
         4        10         1        32     9        0.000000       -0.034793         1
         4        10         1        32     9      180.000000        0.064745         2
         4        10         1        32     9        0.000000        0.298913         3
         4        10         1        32     9      180.000000        0.014470         4
         4        10         1        33     9        0.000000       -0.034793         1
         4        10         1        33     9      180.000000        0.064745         2
         4        10         1        33     9        0.000000        0.298913         3
         4        10         1        33     9      180.000000        0.014470         4
         4        10        27         9     9        0.000000       -0.203113         1
         4        10        27         9     9      180.000000       -0.228725         2
         4        10        27         9     9        0.000000        0.538013         3
         4        10        27         9     9      180.000000        0.024242         4
         4        10        27        43     9        0.000000       -0.211311         1
         4        10        27        43     9      180.000000        0.210201         2
         4        10        27        43     9        0.000000        0.038851         3
         4        10        27        43     9      180.000000       -0.020037         4
         5         8        19        15     9        0.000000       -0.033769         1
         5         8        19        15     9      180.000000       15.070050         2
         5         8        19        15     9        0.000000       -0.822733         3
         5         8        19        15     9      180.000000       -0.166007         4
         5         8        19        22     9        0.000000        0.213515         1
         5         8        19        22     9      180.000000       15.796953         2
         5         8        19        22     9        0.000000        0.046168         3
         5         8        19        22     9      180.000000       -0.230207         4
         5        13        14        15     9        0.000000       -0.084562         1
         5        13        14        15     9      180.000000       17.436868         2
         5        13        14        15     9        0.000000       -1.215052         3
         5        13        14        15     9      180.000000       -0.350359         4
         5        13        14        28     9        0.000000        0.222596         1
         5        13        14        28     9      180.000000       12.990701         2
         5        13        14        28     9        0.000000       -0.533192         3
         5        13        14        28     9      180.000000        0.123340         4
         6         2         1        10     9        0.000000        0.588019         1
         6         2         1        10     9      180.000000       -1.553809         2
         6         2         1        10     9        0.000000        0.318518         3
         6         2         1        10     9      180.000000        0.071837         4
         6         2         1        32     9        0.000000       -0.070257         1
         6         2         1        32     9      180.000000        0.057420         2
         6         2         1        32     9        0.000000        0.194875         3
         6         2         1        32     9      180.000000       -0.007724         4
         6         2         1        33     9        0.000000       -0.070257         1
         6         2         1        33     9      180.000000        0.057420         2
         6         2         1        33     9        0.000000        0.194875         3
         6         2         1        33     9      180.000000       -0.007724         4
         6         3         4        10     9        0.000000        0.588019         1
         6         3         4        10     9      180.000000       -1.553809         2
         6         3         4        10     9        0.000000        0.318518         3
         6         3         4        10     9      180.000000        0.071837         4
         6         3         4        38     9        0.000000       -0.070257         1
         6         3         4        38     9      180.000000        0.057420         2
         6         3         4        38     9        0.000000        0.194875         3
         6         3         4        38     9      180.000000       -0.007724         4
         6         3         4        39     9        0.000000       -0.070257         1
         6         3         4        39     9      180.000000        0.057420         2
         6         3         4        39     9        0.000000        0.194875         3
         6         3         4        39     9      180.000000       -0.007724         4
         7        18        12        11     9        0.000000       -0.297758         1
         7        18        12        11     9      180.000000       19.731866         2
         7        18        12        11     9        0.000000       -0.833229         3
         7        18        12        11     9      180.000000       -0.812065         4
         7        18        12        30     9        0.000000       -0.008192         1
         7        18        12        30     9      180.000000       14.943396         2
         7        18        12        30     9        0.000000       -0.174775         3
         7        18        12        30     9      180.000000        0.084573         4
         7        18        22        19     9        0.000000        1.422480         1
         7        18        22        19     9      180.000000        3.329318         2
         7        18        22        19     9        0.000000        1.502742         3
         7        18        22        19     9      180.000000       -0.335515         4
         7        25        16        11     9        0.000000       -1.503355         1
         7        25        16        11     9      180.000000        5.552138         2
         7        25        16        11     9        0.000000       -0.707589         3
         7        25        16        11     9      180.000000        0.255462         4
         7        25        16        26     9        0.000000        0.682041         1
         7        25        16        26     9      180.000000        7.483658         2
         7        25        16        26     9        0.000000        0.331528         3
         7        25        16        26     9      180.000000       -0.178454         4
         7        25        20        41     9        0.000000        0.470109         1
         7        25        20        41     9      180.000000        0.252246         2
         7        25        20        41     9        0.000000       -0.172620         3
         7        25        20        41     9      180.000000        0.391156         4
         7        25        20        42     9        0.000000        0.470109         1
         7        25        20        42     9      180.000000        0.252246         2
         7        25        20        42     9        0.000000       -0.172620         3
         7        25        20        42     9      180.000000        0.391156         4
         7        25        20        44     9        0.000000       -1.127556         1
         7        25        20        44     9      180.000000       -1.098753         2
         7        25        20        44     9        0.000000        0.351270         3
         7        25        20        44     9      180.000000       -0.192859         4
         8         5        13        14     9        0.000000       -0.101773         1
         8         5        13        14     9      180.000000       17.261374         2
         8         5        13        14     9        0.000000       -1.245547         3
         8         5        13        14     9      180.000000       -0.369105         4
         8         5        13        21     9        0.000000        0.202544         1
         8         5        13        21     9      180.000000       22.811181         2
         8         5        13        21     9        0.000000        0.550755         3
         8         5        13        21     9      180.000000       -0.701551         4
         8        19        15        14     9        0.000000       -0.019541         1
         8        19        15        14     9      180.000000       17.479613         2
         8        19        15        14     9        0.000000       -1.174083         3
         8        19        15        14     9      180.000000       -0.342804         4
         8        19        15        49     9        0.000000        0.103760         1
         8        19        15        49     9      180.000000       12.825624         2
         8        19        15        49     9        0.000000       -0.551226         3
         8        19        15        49     9      180.000000        0.193193         4
         8        19        22        18     9        0.000000        0.392896         1
         8        19        22        18     9      180.000000        2.044104         2
         8        19        22        18     9        0.000000        0.320334         3
         8        19        22        18     9      180.000000       -0.085037         4
         9        23        17        11     9        0.000000       -0.351880         1
         9        23        17        11     9      180.000000       20.901905         2
         9        23        17        11     9        0.000000       -1.476279         3
         9        23        17        11     9      180.000000       -0.227830         4
         9        23        17        31     9        0.000000        0.357883         1
         9        23        17        31     9      180.000000       19.018619         2
         9        23        17        31     9        0.000000       -0.094002         3
         9        23        17        31     9      180.000000       -0.241065         4
         9        26        16        11     9        0.000000       -0.337515         1
         9        26        16        11     9      180.000000       12.627789         2
         9        26        16        11     9        0.000000       -0.688033         3
         9        26        16        11     9      180.000000       -0.074123         4
         9        26        16        25     9        0.000000       -0.273345         1
         9        26        16        25     9      180.000000       16.618016         2
         9        26        16        25     9        0.000000        0.547274         3
         9        26        16        25     9      180.000000       -0.558886         4
         9        27        10        40     9        0.000000       -0.159174         1
         9        27        10        40     9      180.000000        0.215924         2
         9        27        10        40     9        0.000000        0.641603         3
         9        27        10        40     9      180.000000        0.037921         4
        10         1         2        34     9        0.000000       -0.016397         1
        10         1         2        34     9      180.000000        0.056039         2
        10         1         2        34     9        0.000000        0.282909         3
        10         1         2        34     9      180.000000        0.009404         4
        10         1         2        35     9        0.000000       -0.016397         1
        10         1         2        35     9      180.000000        0.056039         2
        10         1         2        35     9        0.000000        0.282909         3
        10         1         2        35     9      180.000000        0.009404         4
        10         4         3        36     9        0.000000       -0.016397         1
        10         4         3        36     9      180.000000        0.056039         2
        10         4         3        36     9        0.000000        0.282909         3
        10         4         3        36     9      180.000000        0.009404         4
        10         4         3        37     9        0.000000       -0.016397         1
        10         4         3        37     9      180.000000        0.056039         2
        10         4         3        37     9        0.000000        0.282909         3
        10         4         3        37     9      180.000000        0.009404         4
        10        27         9        23     9        0.000000        0.387695         1
        10        27         9        23     9      180.000000        7.925193         2
        10        27         9        23     9        0.000000        0.630612         3
        10        27         9        23     9      180.000000       -0.895939         4
        10        27         9        26     9        0.000000       -0.031309         1
        10        27         9        26     9      180.000000        8.520451         2
        10        27         9        26     9        0.000000        0.339469         3
        10        27         9        26     9      180.000000       -0.740009         4
        11        12        18        22     9        0.000000       -0.497941         1
        11        12        18        22     9      180.000000       27.317802         2
        11        12        18        22     9        0.000000       -0.103955         3
        11        12        18        22     9      180.000000       -1.525768         4
        11        16        25        20     9        0.000000        0.077308         1
        11        16        25        20     9      180.000000        7.753460         2
        11        16        25        20     9        0.000000        0.106173         3
        11        16        25        20     9      180.000000        0.035266         4
        12        11        16        25     9        0.000000        0.228285         1
        12        11        16        25     9      180.000000       13.683832         2
        12        11        16        25     9        0.000000       -0.178110         3
        12        11        16        25     9      180.000000       -0.568891         4
        12        11        16        26     9        0.000000        0.191013         1
        12        11        16        26     9      180.000000       12.599867         2
        12        11        16        26     9        0.000000        0.105605         3
        12        11        16        26     9      180.000000       -0.372330         4
        12        11        17        23     9        0.000000        0.052547         1
        12        11        17        23     9      180.000000       14.157587         2
        12        11        17        23     9        0.000000        0.079093         3
        12        11        17        23     9      180.000000       -0.519868         4
        12        11        17        31     9        0.000000        0.123540         1
        12        11        17        31     9      180.000000       12.165825         2
        12        11        17        31     9        0.000000        0.210553         3
        12        11        17        31     9      180.000000       -0.122556         4
        12        18         7        24     9        0.000000        0.431534         1
        12        18         7        24     9      180.000000        5.701944         2
        12        18         7        24     9        0.000000       -0.020560         3
        12        18         7        24     9      180.000000       -0.407036         4
        12        18         7        25     9        0.000000        2.047329         1
        12        18         7        25     9      180.000000        1.851457         2
        12        18         7        25     9        0.000000        0.181263         3
        12        18         7        25     9      180.000000        0.096096         4
        12        18        22        19     9        0.000000       -0.347315         1
        12        18        22        19     9      180.000000        4.738828         2
        12        18        22        19     9        0.000000       -1.550340         3
        12        18        22        19     9      180.000000        0.143112         4
        13         5         8        19     9        0.000000       -0.159544         1
        13         5         8        19     9      180.000000       17.441704         2
        13         5         8        19     9        0.000000       -1.253452         3
        13         5         8        19     9      180.000000       -0.342164         4
        13         5         8        48     9        0.000000        0.535263         1
        13         5         8        48     9      180.000000       22.924711         2
        13         5         8        48     9        0.000000        0.562820         3
        13         5         8        48     9      180.000000       -0.548397         4
        13        14        15        19     9        0.000000       -0.193831         1
        13        14        15        19     9      180.000000       18.718306         2
        13        14        15        19     9        0.000000       -1.470902         3
        13        14        15        19     9      180.000000       -0.444338         4
        13        14        15        49     9        0.000000        0.152982         1
        13        14        15        49     9      180.000000       14.549564         2
        13        14        15        49     9        0.000000       -0.624237         3
        13        14        15        49     9      180.000000        0.081753         4
        14        13         5        29     9        0.000000        0.181711         1
        14        13         5        29     9      180.000000       12.249439         2
        14        13         5        29     9        0.000000       -0.437418         3
        14        13         5        29     9      180.000000        0.175565         4
        14        15        19        22     9        0.000000        0.435183         1
        14        15        19        22     9      180.000000       18.963855         2
        14        15        19        22     9        0.000000        0.317361         3
        14        15        19        22     9      180.000000       -0.395936         4
        15        14        13        21     9        0.000000        0.505280         1
        15        14        13        21     9      180.000000       23.564142         2
        15        14        13        21     9        0.000000        0.449858         3
        15        14        13        21     9      180.000000       -0.661252         4
        15        19         8        48     9        0.000000        0.586983         1
        15        19         8        48     9      180.000000       18.000231         2
        15        19         8        48     9        0.000000        0.390466         3
        15        19         8        48     9      180.000000       -0.347261         4
        15        19        22        18     9        0.000000       -0.684443         1
        15        19        22        18     9      180.000000        3.417237         2
        15        19        22        18     9        0.000000       -0.700054         3
        15        19        22        18     9      180.000000        0.147253         4
        16        11        12        18     9        0.000000       -0.757750         1
        16        11        12        18     9      180.000000       11.972965         2
        16        11        12        18     9        0.000000       -1.761660         3
        16        11        12        18     9      180.000000       -0.251663         4
        16        11        12        30     9        0.000000        0.119431         1
        16        11        12        30     9      180.000000        8.201666         2
        16        11        12        30     9        0.000000       -0.273930         3
        16        11        12        30     9      180.000000       -0.166853         4
        16        11        17        23     9        0.000000        0.187316         1
        16        11        17        23     9      180.000000       14.559041         2
        16        11        17        23     9        0.000000       -0.252982         3
        16        11        17        23     9      180.000000       -0.388857         4
        16        11        17        31     9        0.000000        0.220668         1
        16        11        17        31     9      180.000000       12.130077         2
        16        11        17        31     9        0.000000       -0.252151         3
        16        11        17        31     9      180.000000       -0.214101         4
        16        25         7        18     9        0.000000       -1.510105         1
        16        25         7        18     9      180.000000        4.343532         2
        16        25         7        18     9        0.000000        0.006090         3
        16        25         7        18     9      180.000000        0.092905         4
        16        25         7        24     9        0.000000        0.217566         1
        16        25         7        24     9      180.000000        9.906232         2
        16        25         7        24     9        0.000000       -0.599120         3
        16        25         7        24     9      180.000000       -0.440562         4
        16        25        20        41     9        0.000000       -0.298405         1
        16        25        20        41     9      180.000000        0.220386         2
        16        25        20        41     9        0.000000       -0.166103         3
        16        25        20        41     9      180.000000        0.402063         4
        16        25        20        42     9        0.000000       -0.298405         1
        16        25        20        42     9      180.000000        0.220386         2
        16        25        20        42     9        0.000000       -0.166103         3
        16        25        20        42     9      180.000000        0.402063         4
        16        25        20        44     9        0.000000       -0.002561         1
        16        25        20        44     9      180.000000       -1.364777         2
        16        25        20        44     9        0.000000        0.327691         3
        16        25        20        44     9      180.000000       -0.079274         4
        16        26         9        23     9        0.000000        0.765102         1
        16        26         9        23     9      180.000000        9.605400         2
        16        26         9        23     9        0.000000        0.571027         3
        16        26         9        23     9      180.000000       -0.395031         4
        16        26         9        27     9        0.000000        1.089045         1
        16        26         9        27     9      180.000000       15.356575         2
        16        26         9        27     9        0.000000        0.198555         3
        16        26         9        27     9      180.000000       -0.961916         4
        17        11        12        18     9        0.000000       -0.660843         1
        17        11        12        18     9      180.000000        8.788017         2
        17        11        12        18     9        0.000000       -0.842360         3
        17        11        12        18     9      180.000000        0.026900         4
        17        11        12        30     9        0.000000       -0.815890         1
        17        11        12        30     9      180.000000        4.929518         2
        17        11        12        30     9        0.000000       -0.368799         3
        17        11        12        30     9      180.000000       -0.065384         4
        17        11        16        25     9        0.000000       -0.472598         1
        17        11        16        25     9      180.000000       12.481719         2
        17        11        16        25     9        0.000000       -0.521501         3
        17        11        16        25     9      180.000000       -0.421303         4
        17        11        16        26     9        0.000000       -0.106844         1
        17        11        16        26     9      180.000000       11.209245         2
        17        11        16        26     9        0.000000        0.036353         3
        17        11        16        26     9      180.000000       -0.295614         4
        17        23         9        26     9        0.000000        0.719658         1
        17        23         9        26     9      180.000000        9.927606         2
        17        23         9        26     9        0.000000        0.789125         3
        17        23         9        26     9      180.000000       -0.541414         4
        17        23         9        27     9        0.000000        1.258938         1
        17        23         9        27     9      180.000000       15.073809         2
        17        23         9        27     9        0.000000        0.447281         3
        17        23         9        27     9      180.000000       -0.788275         4
        18         7        25        20     9        0.000000        0.606601         1
        18         7        25        20     9      180.000000        9.056195         2
        18         7        25        20     9        0.000000        0.295187         3
        18         7        25        20     9      180.000000       -0.116743         4
        19         8         5        29     9        0.000000        0.204291         1
        19         8         5        29     9      180.000000       12.330683         2
        19         8         5        29     9        0.000000       -0.429751         3
        19         8         5        29     9      180.000000        0.180492         4
        19        15        14        28     9        0.000000        0.085472         1
        19        15        14        28     9      180.000000       14.240723         2
        19        15        14        28     9        0.000000       -0.502524         3
        19        15        14        28     9      180.000000        0.093111         4
        20        25         7        24     9        0.000000        0.000527         1
        20        25         7        24     9      180.000000       11.020439         2
        20        25         7        24     9        0.000000       -1.204367         3
        20        25         7        24     9      180.000000        0.368804         4
        20        25        16        26     9        0.000000       -0.795175         1
        20        25        16        26     9      180.000000        9.368947         2
        20        25        16        26     9        0.000000       -0.159388         3
        20        25        16        26     9      180.000000        0.062444         4
        21        13         5        29     9        0.000000        0.302040         1
        21        13         5        29     9      180.000000       14.938911         2
        21        13         5        29     9        0.000000        0.256433         3
        21        13         5        29     9      180.000000        0.230067         4
        21        13        14        28     9        0.000000        0.256909         1
        21        13        14        28     9      180.000000       16.033530         2
        21        13        14        28     9        0.000000        0.305426         3
        21        13        14        28     9      180.000000        0.139760         4
        22        18         7        24     9        0.000000       -1.977705         1
        22        18         7        24     9      180.000000       11.073833         2
        22        18         7        24     9        0.000000       -0.471307         3
        22        18         7        24     9      180.000000       -0.272460         4
        22        18         7        25     9        0.000000        0.100305         1
        22        18         7        25     9      180.000000        7.409158         2
        22        18         7        25     9        0.000000        0.190939         3
        22        18         7        25     9      180.000000        0.009085         4
        22        18        12        30     9        0.000000        0.134521         1
        22        18        12        30     9      180.000000       19.758674         2
        22        18        12        30     9        0.000000        0.166604         3
        22        18        12        30     9      180.000000       -0.198736         4
        22        19         8        48     9        0.000000       -0.107430         1
        22        19         8        48     9      180.000000       20.900295         2
        22        19         8        48     9        0.000000        0.246360         3
        22        19         8        48     9      180.000000       -0.890880         4
        22        19        15        49     9        0.000000        0.172923         1
        22        19        15        49     9      180.000000       14.279825         2
        22        19        15        49     9        0.000000        0.166673         3
        22        19        15        49     9      180.000000        0.327322         4
        23         9        27        43     9        0.000000       -0.519507         1
        23         9        27        43     9      180.000000       10.556826         2
        23         9        27        43     9        0.000000       -0.449027         3
        23         9        27        43     9      180.000000       -0.622276         4
        25        20        44        45     9        0.000000        0.042949         1
        25        20        44        45     9      180.000000       -0.077727         2
        25        20        44        45     9        0.000000        0.449305         3
        25        20        44        45     9      180.000000        0.045397         4
        25        20        44        46     9        0.000000        0.042949         1
        25        20        44        46     9      180.000000       -0.077727         2
        25        20        44        46     9        0.000000        0.449305         3
        25        20        44        46     9      180.000000        0.045397         4
        25        20        44        47     9        0.000000        0.042949         1
        25        20        44        47     9      180.000000       -0.077727         2
        25        20        44        47     9        0.000000        0.449305         3
        25        20        44        47     9      180.000000        0.045397         4
        26         9        27        43     9        0.000000        0.718074         1
        26         9        27        43     9      180.000000       10.627488         2
        26         9        27        43     9        0.000000       -0.494479         3
        26         9        27        43     9      180.000000       -0.498172         4
        27        10         1        32     9        0.000000        0.103752         1
        27        10         1        32     9      180.000000        0.093489         2
        27        10         1        32     9        0.000000        0.307978         3
        27        10         1        32     9      180.000000       -0.046607         4
        27        10         1        33     9        0.000000        0.103752         1
        27        10         1        33     9      180.000000        0.093489         2
        27        10         1        33     9        0.000000        0.307978         3
        27        10         1        33     9      180.000000       -0.046607         4
        27        10         4        38     9        0.000000        0.103751         1
        27        10         4        38     9      180.000000        0.093489         2
        27        10         4        38     9        0.000000        0.307978         3
        27        10         4        38     9      180.000000       -0.046607         4
        27        10         4        39     9        0.000000        0.103751         1
        27        10         4        39     9      180.000000        0.093489         2
        27        10         4        39     9        0.000000        0.307978         3
        27        10         4        39     9      180.000000       -0.046607         4
        28        14        15        49     9        0.000000       -0.156577         1
        28        14        15        49     9      180.000000       11.949670         2
        28        14        15        49     9        0.000000       -0.717197         3
        28        14        15        49     9      180.000000        0.181692         4
        29         5         8        48     9        0.000000        0.356407         1
        29         5         8        48     9      180.000000       15.755417         2
        29         5         8        48     9        0.000000        0.173168         3
        29         5         8        48     9      180.000000        0.272104         4
        32         1         2        34     9        0.000000       -0.014072         1
        32         1         2        34     9      180.000000       -0.013164         2
        32         1         2        34     9        0.000000        0.310609         3
        32         1         2        34     9      180.000000        0.009990         4
        32         1         2        35     9        0.000000       -0.014072         1
        32         1         2        35     9      180.000000       -0.013164         2
        32         1         2        35     9        0.000000        0.310609         3
        32         1         2        35     9      180.000000        0.009990         4
        32         1        10        40     9        0.000000       -0.005225         1
        32         1        10        40     9      180.000000        0.012814         2
        32         1        10        40     9        0.000000        0.279744         3
        32         1        10        40     9      180.000000        0.088945         4
        33         1         2        34     9        0.000000       -0.014072         1
        33         1         2        34     9      180.000000       -0.013164         2
        33         1         2        34     9        0.000000        0.310609         3
        33         1         2        34     9      180.000000        0.009990         4
        33         1         2        35     9        0.000000       -0.014072         1
        33         1         2        35     9      180.000000       -0.013164         2
        33         1         2        35     9        0.000000        0.310609         3
        33         1         2        35     9      180.000000        0.009990         4
        33         1        10        40     9        0.000000       -0.005225         1
        33         1        10        40     9      180.000000        0.012814         2
        33         1        10        40     9        0.000000        0.279744         3
        33         1        10        40     9      180.000000        0.088945         4
        36         3         4        38     9        0.000000       -0.014072         1
        36         3         4        38     9      180.000000       -0.013164         2
        36         3         4        38     9        0.000000        0.310610         3
        36         3         4        38     9      180.000000        0.009991         4
        36         3         4        39     9        0.000000       -0.014072         1
        36         3         4        39     9      180.000000       -0.013164         2
        36         3         4        39     9        0.000000        0.310610         3
        36         3         4        39     9      180.000000        0.009991         4
        37         3         4        38     9        0.000000       -0.014072         1
        37         3         4        38     9      180.000000       -0.013164         2
        37         3         4        38     9        0.000000        0.310610         3
        37         3         4        38     9      180.000000        0.009991         4
        37         3         4        39     9        0.000000       -0.014072         1
        37         3         4        39     9      180.000000       -0.013164         2
        37         3         4        39     9        0.000000        0.310610         3
        37         3         4        39     9      180.000000        0.009991         4
        38         4        10        40     9        0.000000       -0.005226         1
        38         4        10        40     9      180.000000        0.012815         2
        38         4        10        40     9        0.000000        0.279744         3
        38         4        10        40     9      180.000000        0.088945         4
        39         4        10        40     9        0.000000       -0.005226         1
        39         4        10        40     9      180.000000        0.012815         2
        39         4        10        40     9        0.000000        0.279744         3
        39         4        10        40     9      180.000000        0.088945         4
        40        10        27        43     9        0.000000       -0.695821         1
        40        10        27        43     9      180.000000       -0.162734         2
        40        10        27        43     9        0.000000        0.223778         3
        40        10        27        43     9      180.000000        0.050708         4
        41        20        44        45     9        0.000000       -0.010630         1
        41        20        44        45     9      180.000000        0.034530         2
        41        20        44        45     9        0.000000        0.545792         3
        41        20        44        45     9      180.000000        0.036599         4
        41        20        44        46     9        0.000000       -0.010630         1
        41        20        44        46     9      180.000000        0.034530         2
        41        20        44        46     9        0.000000        0.545792         3
        41        20        44        46     9      180.000000        0.036599         4
        41        20        44        47     9        0.000000       -0.010630         1
        41        20        44        47     9      180.000000        0.034530         2
        41        20        44        47     9        0.000000        0.545792         3
        41        20        44        47     9      180.000000        0.036599         4
        42        20        44        45     9        0.000000       -0.010630         1
        42        20        44        45     9      180.000000        0.034530         2
        42        20        44        45     9        0.000000        0.545792         3
        42        20        44        45     9      180.000000        0.036599         4
        42        20        44        46     9        0.000000       -0.010630         1
        42        20        44        46     9      180.000000        0.034530         2
        42        20        44        46     9        0.000000        0.545792         3
        42        20        44        46     9      180.000000        0.036599         4
        42        20        44        47     9        0.000000       -0.010630         1
        42        20        44        47     9      180.000000        0.034530         2
        42        20        44        47     9        0.000000        0.545792         3
        42        20        44        47     9      180.000000        0.036599         4

[ dihedrals ] ; impropers
;       ai        aj        ak        al funct           phase               k        pn
         7        18        24        25     4      180.000000       21.426273         2
         7        24        25        18     4      180.000000       21.426273         2
         7        25        18        24     4      180.000000       21.426273         2
         9        23        26        27     4      180.000000       27.893333         2
         9        26        27        23     4      180.000000       27.893333         2
         9        27        23        26     4      180.000000       27.893333         2
        12        11        18        30     4      180.000000        2.795688         2
        12        18        30        11     4      180.000000        2.795688         2
        12        30        11        18     4      180.000000        2.795688         2
        13         5        14        21     4      180.000000        0.457749         2
        13        14        21         5     4      180.000000        0.457749         2
        13        21         5        14     4      180.000000        0.457749         2
        15        14        19        49     4      180.000000        1.019580         2
        15        19        49        14     4      180.000000        1.019580         2
        15        49        14        19     4      180.000000        1.019580         2
        16        11        25        26     4      180.000000       13.634241         2
        16        25        26        11     4      180.000000       13.634241         2
        16        26        11        25     4      180.000000       13.634241         2
        17        11        23        31     4      180.000000       13.981849         2
        17        23        31        11     4      180.000000       13.981849         2
        17        31        11        23     4      180.000000       13.981849         2

[ pairs ]
;       ai        aj funct
         1         3     1
         1         9     1
         1        38     1
         1        39     1
         1        43     1
         2         4     1
         2        27     1
         2        36     1
         2        37     1
         2        40     1
         3        27     1
         3        34     1
         3        35     1
         3        40     1
         4         9     1
         4        32     1
         4        33     1
         4        43     1
         5        15     1
         5        22     1
         5        28     1
         6        10     1
         6        32     1
         6        33     1
         6        38     1
         6        39     1
         7        11     1
         7        19     1
         7        26     1
         7        30     1
         7        41     1
         7        42     1
         7        44     1
         8        14     1
         8        18     1
         8        21     1
         8        49     1
         9        11     1
         9        25     1
         9        31     1
         9        40     1
        10        23     1
        10        26     1
        10        34     1
        10        35     1
        10        36     1
        10        37     1
        11        20     1
        11        22     1
        12        19     1
        12        23     1
        12        24     1
        12        25     1
        12        26     1
        12        31     1
        13        19     1
        13        48     1
        13        49     1
        14        22     1
        14        29     1
        15        18     1
        15        21     1
        15        48     1
        16        18     1
        16        23     1
        16        24     1
        16        27     1
        16        30     1
        16        31     1
        16        41     1
        16        42     1
        16        44     1
        17        18     1
        17        25     1
        17        26     1
        17        27     1
        17        30     1
        18        20     1
        19        28     1
        19        29     1
        20        24     1
        20        26     1
        21        28     1
        21        29     1
        22        24     1
        22        25     1
        22        30     1
        22        48     1
        22        49     1
        23        43     1
        25        45     1
        25        46     1
        25        47     1
        26        43     1
        27        32     1
        27        33     1
        27        38     1
        27        39     1
        28        49     1
        29        48     1
        32        34     1
        32        35     1
        32        40     1
        33        34     1
        33        35     1
        33        40     1
        36        38     1
        36        39     1
        37        38     1
        37        39     1
        38        40     1
        39        40     1
        40        43     1
        41        45     1
        41        46     1
        41        47     1
        42        45     1
        42        46     1
        42        47     1
