; ITP file created by ByteFF-ML, 2026-02-21 08:22:40.952862

[ atomtypes ]
;name           bonded.type        at.num        mass        charge   ptype           sigma         epsilon
 c0bf                                   6      0.0000       0.00000       A     3.39825e-01     4.50572e-01
 c1bf                                   6      0.0000       0.00000       A     3.39678e-01     4.51033e-01
 c2bf                                   6      0.0000       0.00000       A     3.39678e-01     4.51033e-01
 c3bf                                   6      0.0000       0.00000       A     3.39825e-01     4.50572e-01
 c4bf                                   6      0.0000       0.00000       A     3.31468e-01     4.12718e-01
 o5bf                                   8      0.0000       0.00000       A     3.15644e-01     3.03351e-01
 c6bf                                   6      0.0000       0.00000       A     3.31427e-01     4.12065e-01
 c7bf                                   6      0.0000       0.00000       A     3.31482e-01     4.13404e-01
 c8bf                                   6      0.0000       0.00000       A     3.31540e-01     4.14188e-01
 c9bf                                   6      0.0000       0.00000       A     3.39714e-01     4.52178e-01
 c10bf                                  6      0.0000       0.00000       A     3.31322e-01     4.13500e-01
 c11bf                                  6      0.0000       0.00000       A     3.31627e-01     4.12965e-01
 c12bf                                  6      0.0000       0.00000       A     3.31488e-01     4.13497e-01
 c13bf                                  6      0.0000       0.00000       A     3.31494e-01     4.12507e-01
 c14bf                                  6      0.0000       0.00000       A     3.31504e-01     4.12314e-01
 c15bf                                  6      0.0000       0.00000       A     3.31396e-01     4.15363e-01
 c16bf                                  6      0.0000       0.00000       A     3.31274e-01     4.14249e-01
 c17bf                                  6      0.0000       0.00000       A     3.31233e-01     4.18260e-01
 c18bf                                  6      0.0000       0.00000       A     3.31474e-01     4.12750e-01
 f19bf                                  9      0.0000       0.00000       A     3.03295e-01     3.47905e-01
 f20bf                                  9      0.0000       0.00000       A     3.03414e-01     3.47611e-01
 o21bf                                  8      0.0000       0.00000       A     3.16253e-01     3.10021e-01
 n22bf                                  7      0.0000       0.00000       A     3.38488e-01     3.93278e-01
 o23bf                                  8      0.0000       0.00000       A     3.04742e-01     6.11722e-01
 n24bf                                  7      0.0000       0.00000       A     3.17846e-01     6.80808e-01
 n25bf                                  7      0.0000       0.00000       A     3.38574e-01     3.90845e-01
 n26bf                                  7      0.0000       0.00000       A     3.27859e-01     6.48853e-01
 h27bf                                  1      0.0000       0.00000       A     2.62547e-01     6.71514e-02
 h28bf                                  1      0.0000       0.00000       A     2.62373e-01     6.68945e-02
 h29bf                                  1      0.0000       0.00000       A     2.62520e-01     6.71642e-02
 h30bf                                  1      0.0000       0.00000       A     2.62452e-01     6.74148e-02
 h31bf                                  1      0.0000       0.00000       A     2.53572e-01     6.74323e-02
 h32bf                                  1      0.0000       0.00000       A     2.59805e-01     8.76130e-02
 h33bf                                  1      0.0000       0.00000       A     2.59805e-01     8.76130e-02
 h34bf                                  1      0.0000       0.00000       A     2.42083e-01     8.71949e-02
 h35bf                                  1      0.0000       0.00000       A     2.42083e-01     8.71949e-02
 h36bf                                  1      0.0000       0.00000       A     2.42083e-01     8.71949e-02
 h37bf                                  1      0.0000       0.00000       A     2.42083e-01     8.71949e-02
 h38bf                                  1      0.0000       0.00000       A     2.59805e-01     8.76130e-02
 h39bf                                  1      0.0000       0.00000       A     2.59805e-01     8.76130e-02
 h40bf                                  1      0.0000       0.00000       A     2.42326e-01     8.58414e-02
 h41bf                                  1      0.0000       0.00000       A     2.43327e-01     8.42342e-02
 h42bf                                  1      0.0000       0.00000       A     1.10329e-01     4.16526e-02
 c43bf                                  6      0.0000       0.00000       A     3.39482e-01     4.48778e-01
 c44bf                                  6      0.0000       0.00000       A     3.39708e-01     4.50033e-01
 c45bf                                  6      0.0000       0.00000       A     3.39708e-01     4.50033e-01
 h46bf                                  1      0.0000       0.00000       A     2.60038e-01     8.68980e-02
 h47bf                                  1      0.0000       0.00000       A     2.60038e-01     8.68980e-02
 h48bf                                  1      0.0000       0.00000       A     2.60038e-01     8.68980e-02
 h49bf                                  1      0.0000       0.00000       A     2.60038e-01     8.68980e-02

[ moleculetype ]
;name             nrexcl
 2m                    3

[ atoms ]
;       nr            type      resi   res      atom      cgnr      charge          mass ; qtot
         1            c0bf         1   UNL        c0         1    -0.12568       12.0110 ; qtot   -0.126
         2            c1bf         1   UNL        c1         2     0.15457       12.0110 ; qtot    0.029
         3            c2bf         1   UNL        c2         3     0.15457       12.0110 ; qtot    0.183
         4            c3bf         1   UNL        c3         4    -0.12568       12.0110 ; qtot    0.058
         5            c4bf         1   UNL        c4         5    -0.17396       12.0110 ; qtot   -0.116
         6            o5bf         1   UNL        o5         6    -0.46215       15.9990 ; qtot   -0.578
         7            c6bf         1   UNL        c6         7     0.56362       12.0110 ; qtot   -0.015
         8            c7bf         1   UNL        c7         8     0.17941       12.0110 ; qtot    0.165
         9            c8bf         1   UNL        c8         9     0.40925       12.0110 ; qtot    0.574
        10            c9bf         1   UNL        c9        10     0.24222       12.0110 ; qtot    0.816
        11           c10bf         1   UNL       c10        11    -0.28531       12.0110 ; qtot    0.531
        12           c11bf         1   UNL       c11        12    -0.09575       12.0110 ; qtot    0.435
        13           c12bf         1   UNL       c12        13     0.18085       12.0110 ; qtot    0.616
        14           c13bf         1   UNL       c13        14    -0.14500       12.0110 ; qtot    0.471
        15           c14bf         1   UNL       c14        15    -0.07757       12.0110 ; qtot    0.393
        16           c15bf         1   UNL       c15        16     0.31516       12.0110 ; qtot    0.709
        17           c16bf         1   UNL       c16        17     0.20483       12.0110 ; qtot    0.913
        18           c17bf         1   UNL       c17        18     0.00782       12.0110 ; qtot    0.921
        19           c18bf         1   UNL       c18        19     0.05621       12.0110 ; qtot    0.977
        20           f19bf         1   UNL       f19        20    -0.16069       18.9980 ; qtot    0.817
        21           f20bf         1   UNL       f20        21    -0.17407       18.9980 ; qtot    0.643
        22           o21bf         1   UNL       o21        22    -0.21292       15.9990 ; qtot    0.430
        23           n22bf         1   UNL       n22        23    -0.24925       14.0070 ; qtot    0.180
        24           o23bf         1   UNL       o23        24    -0.51699       15.9990 ; qtot   -0.337
        25           n24bf         1   UNL       n24        25    -0.34371       14.0070 ; qtot   -0.680
        26           n25bf         1   UNL       n25        26    -0.30106       14.0070 ; qtot   -0.981
        27           n26bf         1   UNL       n26        27    -0.90618       14.0070 ; qtot   -1.887
        28           h27bf         1   UNL       h27        28     0.14202        1.0080 ; qtot   -1.745
        29           h28bf         1   UNL       h28        29     0.14072        1.0080 ; qtot   -1.605
        30           h29bf         1   UNL       h29        30     0.15735        1.0080 ; qtot   -1.447
        31           h30bf         1   UNL       h30        31     0.20734        1.0080 ; qtot   -1.240
        32           h31bf         1   UNL       h31        32     0.02881        1.0080 ; qtot   -1.211
        33           h32bf         1   UNL       h32        33     0.05821        1.0080 ; qtot   -1.153
        34           h33bf         1   UNL       h33        34     0.05821        1.0080 ; qtot   -1.095
        35           h34bf         1   UNL       h34        35     0.04708        1.0080 ; qtot   -1.048
        36           h35bf         1   UNL       h35        36     0.04708        1.0080 ; qtot   -1.001
        37           h36bf         1   UNL       h36        37     0.04708        1.0080 ; qtot   -0.954
        38           h37bf         1   UNL       h37        38     0.04708        1.0080 ; qtot   -0.906
        39           h38bf         1   UNL       h38        39     0.05821        1.0080 ; qtot   -0.848
        40           h39bf         1   UNL       h39        40     0.05821        1.0080 ; qtot   -0.790
        41           h40bf         1   UNL       h40        41     0.06788        1.0080 ; qtot   -0.722
        42           h41bf         1   UNL       h41        42     0.10210        1.0080 ; qtot   -0.620
        43           h42bf         1   UNL       h42        43     0.49590        1.0080 ; qtot   -0.124
        44           c43bf         1   UNL       c43        44     0.03338       12.0110 ; qtot   -0.091
        45           c44bf         1   UNL       c44        45    -0.12422       12.0110 ; qtot   -0.215
        46           c45bf         1   UNL       c45        46    -0.12422       12.0110 ; qtot   -0.339
        47           h46bf         1   UNL       h46        47     0.08481        1.0080 ; qtot   -0.254
        48           h47bf         1   UNL       h47        48     0.08481        1.0080 ; qtot   -0.170
        49           h48bf         1   UNL       h48        49     0.08481        1.0080 ; qtot   -0.085
        50           h49bf         1   UNL       h49        50     0.08481        1.0080 ; qtot    0.000

[ bonds ]
;       ai        aj funct               r               k
         1         2     1        0.153597   178293.892139
         1        10     1        0.154056   172093.226611
         1        33     1        0.109441   299169.023926
         1        34     1        0.109441   299169.023926
         2         6     1        0.143005   196789.616040
         2        35     1        0.109640   291280.534229
         2        36     1        0.109640   291280.534229
         3         4     1        0.153597   178293.892139
         3         6     1        0.143005   196789.616040
         3        37     1        0.109640   291280.534229
         3        38     1        0.109640   291280.534229
         4        10     1        0.154056   172093.226611
         4        39     1        0.109441   299169.023926
         4        40     1        0.109441   299169.023926
         5         8     1        0.139038   316524.477588
         5        13     1        0.139274   306854.774512
         5        30     1        0.108387   329224.337451
         7        18     1        0.147767   174894.136768
         7        24     1        0.123014   591212.887891
         7        25     1        0.141376   171500.203857
         8        19     1        0.139881   278838.982227
         8        20     1        0.134995   302917.054395
         9        23     1        0.136163   237012.644580
         9        26     1        0.134625   276307.105518
         9        27     1        0.135839   336371.561475
        10        27     1        0.146342   195657.096313
        10        41     1        0.109339   302297.651807
        11        12     1        0.142993   269629.764307
        11        16     1        0.141891   250973.373682
        11        17     1        0.140328   290164.894531
        12        18     1        0.135668   413819.817285
        12        31     1        0.108541   321917.455420
        13        14     1        0.139128   306394.902246
        13        21     1        0.135607   292150.813379
        14        15     1        0.139766   317517.437012
        14        28     1        0.108444   326597.718066
        15        19     1        0.139462   301245.293066
        15        29     1        0.108442   325811.328320
        16        25     1        0.138238   256018.050879
        16        26     1        0.133514   326347.377783
        17        23     1        0.132397   376887.232520
        17        32     1        0.108981   309825.276611
        18        22     1        0.136850   261675.848535
        19        22     1        0.138220   245914.804297
        25        44     1        0.145426   194777.585498
        27        43     1        0.101197   417437.097754
        42        44     1        0.108513   320426.011621
        44        45     1        0.150988   199746.979297
        44        46     1        0.150988   199746.979297
        45        46     1        0.151123   200168.443750
        45        47     1        0.108442   325141.898535
        45        48     1        0.108442   325141.898535
        46        49     1        0.108442   325141.898535
        46        50     1        0.108442   325141.898535

[ angles ]
;       ai        aj        ak funct           theta             cth
         1         2         6     1      112.057350      650.229837
         1         2        35     1      110.599220      486.660342
         1         2        36     1      110.599220      486.660342
         1        10         4     1      109.670731      539.148838
         1        10        27     1      111.413162      594.575027
         1        10        41     1      108.438194      470.541861
         2         1        10     1      110.143417      679.501302
         2         1        33     1      109.782654      502.446362
         2         1        34     1      109.782654      502.446362
         2         6         3     1      112.347824      593.219262
         3         4        10     1      110.143417      679.501302
         3         4        39     1      109.782654      502.446362
         3         4        40     1      109.782654      502.446362
         4         3         6     1      112.057350      650.229837
         4         3        37     1      110.599220      486.660342
         4         3        38     1      110.599220      486.660342
         4        10        27     1      111.413162      594.575027
         4        10        41     1      108.438194      470.541861
         5         8        19     1      121.913330      589.890372
         5         8        20     1      119.021118      546.594501
         5        13        14     1      122.381203      586.088790
         5        13        21     1      118.423096      577.916724
         6         2        35     1      107.737404      465.042190
         6         2        36     1      107.737404      465.042190
         6         3        37     1      107.737404      465.042190
         6         3        38     1      107.737404      465.042190
         7        18        12     1      122.086899      719.435914
         7        18        22     1      115.787560      323.282280
         7        25        16     1      122.826172      592.896473
         7        25        44     1      117.309059      618.728664
         8         5        13     1      117.606956      745.241738
         8         5        30     1      120.750504      415.603623
         8        19        15     1      118.750526      612.866939
         8        19        22     1      120.025253      363.089558
         9        23        17     1      115.995804      934.042440
         9        26        16     1      116.648178      731.943224
         9        27        10     1      124.684914      451.425356
         9        27        43     1      113.976089      481.853173
        10         1        33     1      109.667801      496.043027
        10         1        34     1      109.667801      496.043027
        10         4        39     1      109.667801      496.043027
        10         4        40     1      109.667801      496.043027
        10        27        43     1      118.351364      413.441906
        11        12        18     1      119.846840      508.394721
        11        12        31     1      120.025803      409.788376
        11        16        25     1      119.097168      625.186232
        11        16        26     1      122.196190      733.100375
        11        17        23     1      123.611710      736.128437
        11        17        32     1      119.625587      406.650025
        12        11        16     1      119.957596      690.932925
        12        11        17     1      124.952698      442.102587
        12        18        22     1      121.772079      449.755133
        13         5        30     1      121.558578      415.206138
        13        14        15     1      118.578598      692.396968
        13        14        28     1      119.971153      420.856319
        14        13        21     1      119.175308      576.491115
        14        15        19     1      120.569313      694.362878
        14        15        29     1      120.676376      412.191418
        15        14        28     1      121.452782      418.521557
        15        19        22     1      120.922203      502.659245
        16        11        17     1      115.030907      843.390234
        16        25        44     1      119.837608      539.566561
        18         7        24     1      122.567215      312.405259
        18         7        25     1      115.630020      680.933806
        18        12        31     1      120.087143      430.896138
        18        22        19     1      118.741661      411.922704
        19         8        20     1      119.050255      408.388879
        19        15        29     1      118.790672      407.974539
        23         9        26     1      126.184364      635.344639
        23         9        27     1      116.817551      599.690174
        23        17        32     1      116.367111      436.659608
        24         7        25     1      121.242088      612.549577
        25        16        26     1      118.311478      545.537010
        25        44        42     1      112.435257      408.127985
        25        44        45     1      119.840088      471.464485
        25        44        46     1      119.840088      471.464485
        26         9        27     1      116.488197      535.260685
        27        10        41     1      106.415306      519.307015
        33         1        34     1      107.383133      356.326501
        35         2        36     1      107.873230      341.256574
        37         3        38     1      107.873230      341.256574
        39         4        40     1      107.383133      356.326501
        42        44        45     1      117.349045      349.051777
        42        44        46     1      117.349045      349.051777
        44        45        46     1       60.029408      167.360000
        44        45        47     1      117.158470      382.606102
        44        45        48     1      117.158470      382.606102
        44        46        45     1       60.029408      167.360000
        44        46        49     1      117.158470      382.606102
        44        46        50     1      117.158470      382.606102
        45        44        46     1       60.239784      167.360000
        45        46        49     1      118.218124      376.015134
        45        46        50     1      118.218124      376.015134
        46        45        47     1      118.218124      376.015134
        46        45        48     1      118.218124      376.015134
        47        45        48     1      115.215942      305.087728
        49        46        50     1      115.215942      305.087728

[ dihedrals ] ; propers for gromacs 4.5 or higher, use funct 9
;       ai        aj        ak        al funct           phase               k        pn
         1         2         6         3     9        0.000000        0.656407         1
         1         2         6         3     9      180.000000       -0.958141         2
         1         2         6         3     9        0.000000        0.587773         3
         1         2         6         3     9      180.000000        0.053351         4
         1        10         4         3     9        0.000000        2.989875         1
         1        10         4         3     9      180.000000       -3.284302         2
         1        10         4         3     9        0.000000        0.008029         3
         1        10         4         3     9      180.000000        0.128316         4
         1        10         4        39     9        0.000000       -0.034793         1
         1        10         4        39     9      180.000000        0.064745         2
         1        10         4        39     9        0.000000        0.298914         3
         1        10         4        39     9      180.000000        0.014469         4
         1        10         4        40     9        0.000000       -0.034793         1
         1        10         4        40     9      180.000000        0.064745         2
         1        10         4        40     9        0.000000        0.298914         3
         1        10         4        40     9      180.000000        0.014469         4
         1        10        27         9     9        0.000000       -0.205897         1
         1        10        27         9     9      180.000000       -0.225108         2
         1        10        27         9     9        0.000000        0.543673         3
         1        10        27         9     9      180.000000        0.023770         4
         1        10        27        43     9        0.000000       -0.211311         1
         1        10        27        43     9      180.000000        0.210201         2
         1        10        27        43     9        0.000000        0.038851         3
         1        10        27        43     9      180.000000       -0.020037         4
         2         1        10         4     9        0.000000        2.989875         1
         2         1        10         4     9      180.000000       -3.284302         2
         2         1        10         4     9        0.000000        0.008029         3
         2         1        10         4     9      180.000000        0.128316         4
         2         1        10        27     9        0.000000       -1.913322         1
         2         1        10        27     9      180.000000       -1.584995         2
         2         1        10        27     9        0.000000        0.106704         3
         2         1        10        27     9      180.000000        0.296263         4
         2         1        10        41     9        0.000000       -0.000719         1
         2         1        10        41     9      180.000000       -0.002826         2
         2         1        10        41     9        0.000000        0.168043         3
         2         1        10        41     9      180.000000        0.040671         4
         2         6         3         4     9        0.000000        0.656407         1
         2         6         3         4     9      180.000000       -0.958141         2
         2         6         3         4     9        0.000000        0.587773         3
         2         6         3         4     9      180.000000        0.053351         4
         2         6         3        37     9        0.000000       -0.046698         1
         2         6         3        37     9      180.000000        0.044371         2
         2         6         3        37     9        0.000000        0.473257         3
         2         6         3        37     9      180.000000       -0.000534         4
         2         6         3        38     9        0.000000       -0.046698         1
         2         6         3        38     9      180.000000        0.044371         2
         2         6         3        38     9        0.000000        0.473257         3
         2         6         3        38     9      180.000000       -0.000534         4
         3         4        10        27     9        0.000000       -1.913322         1
         3         4        10        27     9      180.000000       -1.584995         2
         3         4        10        27     9        0.000000        0.106704         3
         3         4        10        27     9      180.000000        0.296263         4
         3         4        10        41     9        0.000000       -0.000719         1
         3         4        10        41     9      180.000000       -0.002826         2
         3         4        10        41     9        0.000000        0.168043         3
         3         4        10        41     9      180.000000        0.040671         4
         3         6         2        35     9        0.000000       -0.046698         1
         3         6         2        35     9      180.000000        0.044371         2
         3         6         2        35     9        0.000000        0.473257         3
         3         6         2        35     9      180.000000       -0.000534         4
         3         6         2        36     9        0.000000       -0.046698         1
         3         6         2        36     9      180.000000        0.044371         2
         3         6         2        36     9        0.000000        0.473257         3
         3         6         2        36     9      180.000000       -0.000534         4
         4        10         1        33     9        0.000000       -0.034793         1
         4        10         1        33     9      180.000000        0.064745         2
         4        10         1        33     9        0.000000        0.298913         3
         4        10         1        33     9      180.000000        0.014470         4
         4        10         1        34     9        0.000000       -0.034793         1
         4        10         1        34     9      180.000000        0.064745         2
         4        10         1        34     9        0.000000        0.298913         3
         4        10         1        34     9      180.000000        0.014470         4
         4        10        27         9     9        0.000000       -0.205897         1
         4        10        27         9     9      180.000000       -0.225108         2
         4        10        27         9     9        0.000000        0.543673         3
         4        10        27         9     9      180.000000        0.023770         4
         4        10        27        43     9        0.000000       -0.211311         1
         4        10        27        43     9      180.000000        0.210201         2
         4        10        27        43     9        0.000000        0.038851         3
         4        10        27        43     9      180.000000       -0.020037         4
         5         8        19        15     9        0.000000       -0.033769         1
         5         8        19        15     9      180.000000       15.070050         2
         5         8        19        15     9        0.000000       -0.822733         3
         5         8        19        15     9      180.000000       -0.166007         4
         5         8        19        22     9        0.000000        0.214722         1
         5         8        19        22     9      180.000000       15.799349         2
         5         8        19        22     9        0.000000        0.052436         3
         5         8        19        22     9      180.000000       -0.235753         4
         5        13        14        15     9        0.000000       -0.084562         1
         5        13        14        15     9      180.000000       17.436868         2
         5        13        14        15     9        0.000000       -1.215052         3
         5        13        14        15     9      180.000000       -0.350359         4
         5        13        14        28     9        0.000000        0.222596         1
         5        13        14        28     9      180.000000       12.990701         2
         5        13        14        28     9        0.000000       -0.533192         3
         5        13        14        28     9      180.000000        0.123340         4
         6         2         1        10     9        0.000000        0.588019         1
         6         2         1        10     9      180.000000       -1.553809         2
         6         2         1        10     9        0.000000        0.318518         3
         6         2         1        10     9      180.000000        0.071837         4
         6         2         1        33     9        0.000000       -0.070257         1
         6         2         1        33     9      180.000000        0.057420         2
         6         2         1        33     9        0.000000        0.194875         3
         6         2         1        33     9      180.000000       -0.007724         4
         6         2         1        34     9        0.000000       -0.070257         1
         6         2         1        34     9      180.000000        0.057420         2
         6         2         1        34     9        0.000000        0.194875         3
         6         2         1        34     9      180.000000       -0.007724         4
         6         3         4        10     9        0.000000        0.588019         1
         6         3         4        10     9      180.000000       -1.553809         2
         6         3         4        10     9        0.000000        0.318518         3
         6         3         4        10     9      180.000000        0.071837         4
         6         3         4        39     9        0.000000       -0.070257         1
         6         3         4        39     9      180.000000        0.057420         2
         6         3         4        39     9        0.000000        0.194875         3
         6         3         4        39     9      180.000000       -0.007724         4
         6         3         4        40     9        0.000000       -0.070257         1
         6         3         4        40     9      180.000000        0.057420         2
         6         3         4        40     9        0.000000        0.194875         3
         6         3         4        40     9      180.000000       -0.007724         4
         7        18        12        11     9        0.000000       -0.324036         1
         7        18        12        11     9      180.000000       20.008313         2
         7        18        12        11     9        0.000000       -0.817165         3
         7        18        12        11     9      180.000000       -0.847426         4
         7        18        12        31     9        0.000000       -0.009697         1
         7        18        12        31     9      180.000000       15.086540         2
         7        18        12        31     9        0.000000       -0.156214         3
         7        18        12        31     9      180.000000        0.084839         4
         7        18        22        19     9        0.000000        1.529395         1
         7        18        22        19     9      180.000000        3.474916         2
         7        18        22        19     9        0.000000        1.527446         3
         7        18        22        19     9      180.000000       -0.371685         4
         7        25        16        11     9        0.000000       -0.698890         1
         7        25        16        11     9      180.000000        4.978695         2
         7        25        16        11     9        0.000000       -0.607692         3
         7        25        16        11     9      180.000000        0.276492         4
         7        25        16        26     9        0.000000        0.926259         1
         7        25        16        26     9      180.000000        7.276960         2
         7        25        16        26     9        0.000000        0.460640         3
         7        25        16        26     9      180.000000       -0.242998         4
         7        25        44        42     9        0.000000        0.788322         1
         7        25        44        42     9      180.000000        3.258359         2
         7        25        44        42     9        0.000000        0.492178         3
         7        25        44        42     9      180.000000        0.225566         4
         7        25        44        45     9        0.000000       -0.739071         1
         7        25        44        45     9      180.000000        1.581829         2
         7        25        44        45     9        0.000000        0.442013         3
         7        25        44        45     9      180.000000        0.189509         4
         7        25        44        46     9        0.000000       -0.739071         1
         7        25        44        46     9      180.000000        1.581829         2
         7        25        44        46     9        0.000000        0.442013         3
         7        25        44        46     9      180.000000        0.189509         4
         8         5        13        14     9        0.000000       -0.101773         1
         8         5        13        14     9      180.000000       17.261374         2
         8         5        13        14     9        0.000000       -1.245547         3
         8         5        13        14     9      180.000000       -0.369105         4
         8         5        13        21     9        0.000000        0.202544         1
         8         5        13        21     9      180.000000       22.811181         2
         8         5        13        21     9        0.000000        0.550755         3
         8         5        13        21     9      180.000000       -0.701551         4
         8        19        15        14     9        0.000000       -0.019541         1
         8        19        15        14     9      180.000000       17.479613         2
         8        19        15        14     9        0.000000       -1.174083         3
         8        19        15        14     9      180.000000       -0.342804         4
         8        19        15        29     9        0.000000        0.103760         1
         8        19        15        29     9      180.000000       12.825624         2
         8        19        15        29     9        0.000000       -0.551225         3
         8        19        15        29     9      180.000000        0.193193         4
         8        19        22        18     9        0.000000        0.420542         1
         8        19        22        18     9      180.000000        2.027136         2
         8        19        22        18     9        0.000000        0.327737         3
         8        19        22        18     9      180.000000       -0.088897         4
         9        23        17        11     9        0.000000       -0.353325         1
         9        23        17        11     9      180.000000       21.061340         2
         9        23        17        11     9        0.000000       -1.449771         3
         9        23        17        11     9      180.000000       -0.238944         4
         9        23        17        32     9        0.000000        0.363054         1
         9        23        17        32     9      180.000000       19.095042         2
         9        23        17        32     9        0.000000       -0.108128         3
         9        23        17        32     9      180.000000       -0.239796         4
         9        26        16        11     9        0.000000       -0.314297         1
         9        26        16        11     9      180.000000       12.724581         2
         9        26        16        11     9        0.000000       -0.376034         3
         9        26        16        11     9      180.000000       -0.000125         4
         9        26        16        25     9        0.000000       -0.066472         1
         9        26        16        25     9      180.000000       17.174734         2
         9        26        16        25     9        0.000000        0.634165         3
         9        26        16        25     9      180.000000       -0.589587         4
         9        27        10        41     9        0.000000       -0.155425         1
         9        27        10        41     9      180.000000        0.228371         2
         9        27        10        41     9        0.000000        0.645888         3
         9        27        10        41     9      180.000000        0.037368         4
        10         1         2        35     9        0.000000       -0.016397         1
        10         1         2        35     9      180.000000        0.056039         2
        10         1         2        35     9        0.000000        0.282909         3
        10         1         2        35     9      180.000000        0.009404         4
        10         1         2        36     9        0.000000       -0.016397         1
        10         1         2        36     9      180.000000        0.056039         2
        10         1         2        36     9        0.000000        0.282909         3
        10         1         2        36     9      180.000000        0.009404         4
        10         4         3        37     9        0.000000       -0.016397         1
        10         4         3        37     9      180.000000        0.056039         2
        10         4         3        37     9        0.000000        0.282909         3
        10         4         3        37     9      180.000000        0.009404         4
        10         4         3        38     9        0.000000       -0.016397         1
        10         4         3        38     9      180.000000        0.056039         2
        10         4         3        38     9        0.000000        0.282909         3
        10         4         3        38     9      180.000000        0.009404         4
        10        27         9        23     9        0.000000        0.383304         1
        10        27         9        23     9      180.000000        7.898894         2
        10        27         9        23     9        0.000000        0.627890         3
        10        27         9        23     9      180.000000       -0.892512         4
        10        27         9        26     9        0.000000       -0.072251         1
        10        27         9        26     9      180.000000        8.330137         2
        10        27         9        26     9        0.000000        0.328340         3
        10        27         9        26     9      180.000000       -0.748147         4
        11        12        18        22     9        0.000000       -0.508442         1
        11        12        18        22     9      180.000000       27.411607         2
        11        12        18        22     9        0.000000       -0.116169         3
        11        12        18        22     9      180.000000       -1.504254         4
        11        16        25        44     9        0.000000       -0.477394         1
        11        16        25        44     9      180.000000        7.747835         2
        11        16        25        44     9        0.000000        0.010573         3
        11        16        25        44     9      180.000000       -0.035793         4
        12        11        16        25     9        0.000000        0.370845         1
        12        11        16        25     9      180.000000       13.394958         2
        12        11        16        25     9        0.000000       -0.164335         3
        12        11        16        25     9      180.000000       -0.414114         4
        12        11        16        26     9        0.000000        0.302577         1
        12        11        16        26     9      180.000000       12.872726         2
        12        11        16        26     9        0.000000        0.173776         3
        12        11        16        26     9      180.000000       -0.378354         4
        12        11        17        23     9        0.000000        0.058514         1
        12        11        17        23     9      180.000000       14.036581         2
        12        11        17        23     9        0.000000        0.088892         3
        12        11        17        23     9      180.000000       -0.502820         4
        12        11        17        32     9        0.000000        0.087480         1
        12        11        17        32     9      180.000000       12.035140         2
        12        11        17        32     9        0.000000        0.236295         3
        12        11        17        32     9      180.000000       -0.136664         4
        12        18         7        24     9        0.000000        0.566333         1
        12        18         7        24     9      180.000000        5.002569         2
        12        18         7        24     9        0.000000        0.001987         3
        12        18         7        24     9      180.000000       -0.418740         4
        12        18         7        25     9        0.000000        2.249750         1
        12        18         7        25     9      180.000000        1.235386         2
        12        18         7        25     9        0.000000        0.235623         3
        12        18         7        25     9      180.000000        0.089357         4
        12        18        22        19     9        0.000000       -0.243411         1
        12        18        22        19     9      180.000000        4.812218         2
        12        18        22        19     9        0.000000       -1.563363         3
        12        18        22        19     9      180.000000        0.154552         4
        13         5         8        19     9        0.000000       -0.159544         1
        13         5         8        19     9      180.000000       17.441704         2
        13         5         8        19     9        0.000000       -1.253452         3
        13         5         8        19     9      180.000000       -0.342164         4
        13         5         8        20     9        0.000000        0.535263         1
        13         5         8        20     9      180.000000       22.924715         2
        13         5         8        20     9        0.000000        0.562820         3
        13         5         8        20     9      180.000000       -0.548398         4
        13        14        15        19     9        0.000000       -0.193831         1
        13        14        15        19     9      180.000000       18.718306         2
        13        14        15        19     9        0.000000       -1.470902         3
        13        14        15        19     9      180.000000       -0.444338         4
        13        14        15        29     9        0.000000        0.152983         1
        13        14        15        29     9      180.000000       14.549564         2
        13        14        15        29     9        0.000000       -0.624238         3
        13        14        15        29     9      180.000000        0.081753         4
        14        13         5        30     9        0.000000        0.181711         1
        14        13         5        30     9      180.000000       12.249439         2
        14        13         5        30     9        0.000000       -0.437418         3
        14        13         5        30     9      180.000000        0.175565         4
        14        15        19        22     9        0.000000        0.437244         1
        14        15        19        22     9      180.000000       18.968624         2
        14        15        19        22     9        0.000000        0.325049         3
        14        15        19        22     9      180.000000       -0.401095         4
        15        14        13        21     9        0.000000        0.505280         1
        15        14        13        21     9      180.000000       23.564142         2
        15        14        13        21     9        0.000000        0.449858         3
        15        14        13        21     9      180.000000       -0.661252         4
        15        19         8        20     9        0.000000        0.586984         1
        15        19         8        20     9      180.000000       18.000233         2
        15        19         8        20     9        0.000000        0.390466         3
        15        19         8        20     9      180.000000       -0.347261         4
        15        19        22        18     9        0.000000       -0.660411         1
        15        19        22        18     9      180.000000        3.409618         2
        15        19        22        18     9        0.000000       -0.693946         3
        15        19        22        18     9      180.000000        0.141239         4
        16        11        12        18     9        0.000000       -0.871246         1
        16        11        12        18     9      180.000000       12.288471         2
        16        11        12        18     9        0.000000       -1.739748         3
        16        11        12        18     9      180.000000       -0.340342         4
        16        11        12        31     9        0.000000        0.260167         1
        16        11        12        31     9      180.000000        8.767746         2
        16        11        12        31     9        0.000000       -0.315605         3
        16        11        12        31     9      180.000000       -0.153416         4
        16        11        17        23     9        0.000000        0.037258         1
        16        11        17        23     9      180.000000       14.341902         2
        16        11        17        23     9        0.000000       -0.283850         3
        16        11        17        23     9      180.000000       -0.337711         4
        16        11        17        32     9        0.000000        0.229992         1
        16        11        17        32     9      180.000000       12.547417         2
        16        11        17        32     9        0.000000       -0.330295         3
        16        11        17        32     9      180.000000       -0.246258         4
        16        25         7        18     9        0.000000       -1.989269         1
        16        25         7        18     9      180.000000        4.232063         2
        16        25         7        18     9        0.000000       -0.094382         3
        16        25         7        18     9      180.000000        0.118107         4
        16        25         7        24     9        0.000000        0.431790         1
        16        25         7        24     9      180.000000        9.703064         2
        16        25         7        24     9        0.000000       -0.638009         3
        16        25         7        24     9      180.000000       -0.332027         4
        16        25        44        42     9        0.000000       -0.097723         1
        16        25        44        42     9      180.000000        3.182591         2
        16        25        44        42     9        0.000000        0.508625         3
        16        25        44        42     9      180.000000        0.274172         4
        16        25        44        45     9        0.000000       -1.124393         1
        16        25        44        45     9      180.000000        1.668362         2
        16        25        44        45     9        0.000000        0.422992         3
        16        25        44        45     9      180.000000        0.211272         4
        16        25        44        46     9        0.000000       -1.124393         1
        16        25        44        46     9      180.000000        1.668362         2
        16        25        44        46     9        0.000000        0.422992         3
        16        25        44        46     9      180.000000        0.211272         4
        16        26         9        23     9        0.000000        0.839009         1
        16        26         9        23     9      180.000000        9.733482         2
        16        26         9        23     9        0.000000        0.591409         3
        16        26         9        23     9      180.000000       -0.387056         4
        16        26         9        27     9        0.000000        0.925676         1
        16        26         9        27     9      180.000000       15.985035         2
        16        26         9        27     9        0.000000        0.208353         3
        16        26         9        27     9      180.000000       -0.988328         4
        17        11        12        18     9        0.000000       -0.659832         1
        17        11        12        18     9      180.000000        8.579618         2
        17        11        12        18     9        0.000000       -0.828507         3
        17        11        12        18     9      180.000000        0.047523         4
        17        11        12        31     9        0.000000       -0.857038         1
        17        11        12        31     9      180.000000        4.997450         2
        17        11        12        31     9        0.000000       -0.408954         3
        17        11        12        31     9      180.000000       -0.051945         4
        17        11        16        25     9        0.000000       -0.369313         1
        17        11        16        25     9      180.000000       12.505922         2
        17        11        16        25     9        0.000000       -0.398581         3
        17        11        16        25     9      180.000000       -0.328622         4
        17        11        16        26     9        0.000000       -0.100510         1
        17        11        16        26     9      180.000000       11.407132         2
        17        11        16        26     9        0.000000        0.100998         3
        17        11        16        26     9      180.000000       -0.249505         4
        17        23         9        26     9        0.000000        0.800752         1
        17        23         9        26     9      180.000000        9.673260         2
        17        23         9        26     9        0.000000        0.786176         3
        17        23         9        26     9      180.000000       -0.504473         4
        17        23         9        27     9        0.000000        1.281200         1
        17        23         9        27     9      180.000000       14.979443         2
        17        23         9        27     9        0.000000        0.447546         3
        17        23         9        27     9      180.000000       -0.784062         4
        18         7        25        44     9        0.000000        0.217588         1
        18         7        25        44     9      180.000000        8.289106         2
        18         7        25        44     9        0.000000        0.092506         3
        18         7        25        44     9      180.000000        0.009587         4
        19         8         5        30     9        0.000000        0.204291         1
        19         8         5        30     9      180.000000       12.330683         2
        19         8         5        30     9        0.000000       -0.429751         3
        19         8         5        30     9      180.000000        0.180492         4
        19        15        14        28     9        0.000000        0.085472         1
        19        15        14        28     9      180.000000       14.240723         2
        19        15        14        28     9        0.000000       -0.502524         3
        19        15        14        28     9      180.000000        0.093111         4
        20         8         5        30     9        0.000000        0.356407         1
        20         8         5        30     9      180.000000       15.755417         2
        20         8         5        30     9        0.000000        0.173168         3
        20         8         5        30     9      180.000000        0.272104         4
        20         8        19        22     9        0.000000       -0.095431         1
        20         8        19        22     9      180.000000       20.907068         2
        20         8        19        22     9        0.000000        0.258054         3
        20         8        19        22     9      180.000000       -0.892437         4
        21        13         5        30     9        0.000000        0.302040         1
        21        13         5        30     9      180.000000       14.938911         2
        21        13         5        30     9        0.000000        0.256433         3
        21        13         5        30     9      180.000000        0.230067         4
        21        13        14        28     9        0.000000        0.256909         1
        21        13        14        28     9      180.000000       16.033530         2
        21        13        14        28     9        0.000000        0.305426         3
        21        13        14        28     9      180.000000        0.139760         4
        22        18         7        24     9        0.000000       -2.035192         1
        22        18         7        24     9      180.000000       10.979714         2
        22        18         7        24     9        0.000000       -0.409379         3
        22        18         7        24     9      180.000000       -0.322565         4
        22        18         7        25     9        0.000000        0.309778         1
        22        18         7        25     9      180.000000        7.224860         2
        22        18         7        25     9        0.000000        0.256041         3
        22        18         7        25     9      180.000000       -0.056220         4
        22        18        12        31     9        0.000000        0.156088         1
        22        18        12        31     9      180.000000       19.901937         2
        22        18        12        31     9        0.000000        0.139371         3
        22        18        12        31     9      180.000000       -0.201929         4
        22        19        15        29     9        0.000000        0.168823         1
        22        19        15        29     9      180.000000       14.283937         2
        22        19        15        29     9        0.000000        0.166584         3
        22        19        15        29     9      180.000000        0.326814         4
        23         9        27        43     9        0.000000       -0.516301         1
        23         9        27        43     9      180.000000       10.532441         2
        23         9        27        43     9        0.000000       -0.449518         3
        23         9        27        43     9      180.000000       -0.618495         4
        24         7        25        44     9        0.000000       -0.765501         1
        24         7        25        44     9      180.000000       10.518393         2
        24         7        25        44     9        0.000000       -1.028564         3
        24         7        25        44     9      180.000000        0.277770         4
        25        44        45        46     9        0.000000       55.525848         1
        25        44        45        46     9      180.000000       -2.986100         2
        25        44        45        46     9        0.000000       -0.097996         3
        25        44        45        46     9      180.000000       14.164990         4
        25        44        45        47     9        0.000000       -0.218326         1
        25        44        45        47     9      180.000000       -1.103976         2
        25        44        45        47     9        0.000000       -0.032538         3
        25        44        45        47     9      180.000000        1.101377         4
        25        44        45        48     9        0.000000       -0.218326         1
        25        44        45        48     9      180.000000       -1.103976         2
        25        44        45        48     9        0.000000       -0.032538         3
        25        44        45        48     9      180.000000        1.101377         4
        25        44        46        45     9        0.000000       55.525848         1
        25        44        46        45     9      180.000000       -2.986100         2
        25        44        46        45     9        0.000000       -0.097996         3
        25        44        46        45     9      180.000000       14.164990         4
        25        44        46        49     9        0.000000       -0.218326         1
        25        44        46        49     9      180.000000       -1.103976         2
        25        44        46        49     9        0.000000       -0.032538         3
        25        44        46        49     9      180.000000        1.101377         4
        25        44        46        50     9        0.000000       -0.218326         1
        25        44        46        50     9      180.000000       -1.103976         2
        25        44        46        50     9        0.000000       -0.032538         3
        25        44        46        50     9      180.000000        1.101377         4
        26         9        27        43     9        0.000000        0.822530         1
        26         9        27        43     9      180.000000       10.618228         2
        26         9        27        43     9        0.000000       -0.507148         3
        26         9        27        43     9      180.000000       -0.517534         4
        26        16        25        44     9        0.000000       -0.185473         1
        26        16        25        44     9      180.000000        9.394240         2
        26        16        25        44     9        0.000000        0.173648         3
        26        16        25        44     9      180.000000        0.001378         4
        27        10         1        33     9        0.000000        0.103752         1
        27        10         1        33     9      180.000000        0.093489         2
        27        10         1        33     9        0.000000        0.307978         3
        27        10         1        33     9      180.000000       -0.046607         4
        27        10         1        34     9        0.000000        0.103752         1
        27        10         1        34     9      180.000000        0.093489         2
        27        10         1        34     9        0.000000        0.307978         3
        27        10         1        34     9      180.000000       -0.046607         4
        27        10         4        39     9        0.000000        0.103751         1
        27        10         4        39     9      180.000000        0.093489         2
        27        10         4        39     9        0.000000        0.307978         3
        27        10         4        39     9      180.000000       -0.046607         4
        27        10         4        40     9        0.000000        0.103751         1
        27        10         4        40     9      180.000000        0.093489         2
        27        10         4        40     9        0.000000        0.307978         3
        27        10         4        40     9      180.000000       -0.046607         4
        28        14        15        29     9        0.000000       -0.156577         1
        28        14        15        29     9      180.000000       11.949669         2
        28        14        15        29     9        0.000000       -0.717197         3
        28        14        15        29     9      180.000000        0.181692         4
        33         1         2        35     9        0.000000       -0.014072         1
        33         1         2        35     9      180.000000       -0.013164         2
        33         1         2        35     9        0.000000        0.310609         3
        33         1         2        35     9      180.000000        0.009990         4
        33         1         2        36     9        0.000000       -0.014072         1
        33         1         2        36     9      180.000000       -0.013164         2
        33         1         2        36     9        0.000000        0.310609         3
        33         1         2        36     9      180.000000        0.009990         4
        33         1        10        41     9        0.000000       -0.005225         1
        33         1        10        41     9      180.000000        0.012814         2
        33         1        10        41     9        0.000000        0.279744         3
        33         1        10        41     9      180.000000        0.088945         4
        34         1         2        35     9        0.000000       -0.014072         1
        34         1         2        35     9      180.000000       -0.013164         2
        34         1         2        35     9        0.000000        0.310609         3
        34         1         2        35     9      180.000000        0.009990         4
        34         1         2        36     9        0.000000       -0.014072         1
        34         1         2        36     9      180.000000       -0.013164         2
        34         1         2        36     9        0.000000        0.310609         3
        34         1         2        36     9      180.000000        0.009990         4
        34         1        10        41     9        0.000000       -0.005225         1
        34         1        10        41     9      180.000000        0.012814         2
        34         1        10        41     9        0.000000        0.279744         3
        34         1        10        41     9      180.000000        0.088945         4
        37         3         4        39     9        0.000000       -0.014072         1
        37         3         4        39     9      180.000000       -0.013164         2
        37         3         4        39     9        0.000000        0.310610         3
        37         3         4        39     9      180.000000        0.009991         4
        37         3         4        40     9        0.000000       -0.014072         1
        37         3         4        40     9      180.000000       -0.013164         2
        37         3         4        40     9        0.000000        0.310610         3
        37         3         4        40     9      180.000000        0.009991         4
        38         3         4        39     9        0.000000       -0.014072         1
        38         3         4        39     9      180.000000       -0.013164         2
        38         3         4        39     9        0.000000        0.310610         3
        38         3         4        39     9      180.000000        0.009991         4
        38         3         4        40     9        0.000000       -0.014072         1
        38         3         4        40     9      180.000000       -0.013164         2
        38         3         4        40     9        0.000000        0.310610         3
        38         3         4        40     9      180.000000        0.009991         4
        39         4        10        41     9        0.000000       -0.005226         1
        39         4        10        41     9      180.000000        0.012815         2
        39         4        10        41     9        0.000000        0.279744         3
        39         4        10        41     9      180.000000        0.088945         4
        40         4        10        41     9        0.000000       -0.005226         1
        40         4        10        41     9      180.000000        0.012815         2
        40         4        10        41     9        0.000000        0.279744         3
        40         4        10        41     9      180.000000        0.088945         4
        41        10        27        43     9        0.000000       -0.695821         1
        41        10        27        43     9      180.000000       -0.162734         2
        41        10        27        43     9        0.000000        0.223778         3
        41        10        27        43     9      180.000000        0.050708         4
        42        44        45        46     9        0.000000       36.441870         1
        42        44        45        46     9      180.000000        2.850719         2
        42        44        45        46     9        0.000000       -0.298287         3
        42        44        45        46     9      180.000000        6.943119         4
        42        44        45        47     9        0.000000        0.836045         1
        42        44        45        47     9      180.000000       -0.093771         2
        42        44        45        47     9        0.000000       -0.231493         3
        42        44        45        47     9      180.000000        1.616936         4
        42        44        45        48     9        0.000000        0.836045         1
        42        44        45        48     9      180.000000       -0.093771         2
        42        44        45        48     9        0.000000       -0.231493         3
        42        44        45        48     9      180.000000        1.616936         4
        42        44        46        45     9        0.000000       36.441870         1
        42        44        46        45     9      180.000000        2.850719         2
        42        44        46        45     9        0.000000       -0.298287         3
        42        44        46        45     9      180.000000        6.943119         4
        42        44        46        49     9        0.000000        0.836045         1
        42        44        46        49     9      180.000000       -0.093771         2
        42        44        46        49     9        0.000000       -0.231493         3
        42        44        46        49     9      180.000000        1.616936         4
        42        44        46        50     9        0.000000        0.836045         1
        42        44        46        50     9      180.000000       -0.093771         2
        42        44        46        50     9        0.000000       -0.231493         3
        42        44        46        50     9      180.000000        1.616936         4
        44        45        46        49     9        0.000000       20.860481         1
        44        45        46        49     9      180.000000       -0.557412         2
        44        45        46        49     9        0.000000       -0.153272         3
        44        45        46        49     9      180.000000        4.957878         4
        44        45        46        50     9        0.000000       20.860481         1
        44        45        46        50     9      180.000000       -0.557412         2
        44        45        46        50     9        0.000000       -0.153272         3
        44        45        46        50     9      180.000000        4.957878         4
        44        46        45        47     9        0.000000       20.860481         1
        44        46        45        47     9      180.000000       -0.557412         2
        44        46        45        47     9        0.000000       -0.153272         3
        44        46        45        47     9      180.000000        4.957878         4
        44        46        45        48     9        0.000000       20.860481         1
        44        46        45        48     9      180.000000       -0.557412         2
        44        46        45        48     9        0.000000       -0.153272         3
        44        46        45        48     9      180.000000        4.957878         4
        45        44        46        49     9        0.000000       26.906206         1
        45        44        46        49     9      180.000000        1.325142         2
        45        44        46        49     9        0.000000       -0.282657         3
        45        44        46        49     9      180.000000        5.045364         4
        45        44        46        50     9        0.000000       26.906206         1
        45        44        46        50     9      180.000000        1.325142         2
        45        44        46        50     9        0.000000       -0.282657         3
        45        44        46        50     9      180.000000        5.045364         4
        46        44        45        47     9        0.000000       26.906206         1
        46        44        45        47     9      180.000000        1.325142         2
        46        44        45        47     9        0.000000       -0.282657         3
        46        44        45        47     9      180.000000        5.045364         4
        46        44        45        48     9        0.000000       26.906206         1
        46        44        45        48     9      180.000000        1.325142         2
        46        44        45        48     9        0.000000       -0.282657         3
        46        44        45        48     9      180.000000        5.045364         4
        47        45        46        49     9        0.000000       -1.114201         1
        47        45        46        49     9      180.000000       -1.477002         2
        47        45        46        49     9        0.000000       -0.174053         3
        47        45        46        49     9      180.000000        0.661922         4
        47        45        46        50     9        0.000000       -1.114201         1
        47        45        46        50     9      180.000000       -1.477002         2
        47        45        46        50     9        0.000000       -0.174053         3
        47        45        46        50     9      180.000000        0.661922         4
        48        45        46        49     9        0.000000       -1.114201         1
        48        45        46        49     9      180.000000       -1.477002         2
        48        45        46        49     9        0.000000       -0.174053         3
        48        45        46        49     9      180.000000        0.661922         4
        48        45        46        50     9        0.000000       -1.114201         1
        48        45        46        50     9      180.000000       -1.477002         2
        48        45        46        50     9        0.000000       -0.174053         3
        48        45        46        50     9      180.000000        0.661922         4

[ dihedrals ] ; impropers
;       ai        aj        ak        al funct           phase               k        pn
         7        18        24        25     4      180.000000       19.693078         2
         7        24        25        18     4      180.000000       19.693078         2
         7        25        18        24     4      180.000000       19.693078         2
         9        23        26        27     4      180.000000       27.893333         2
         9        26        27        23     4      180.000000       27.893333         2
         9        27        23        26     4      180.000000       27.893333         2
        12        11        18        31     4      180.000000        2.125648         2
        12        18        31        11     4      180.000000        2.125648         2
        12        31        11        18     4      180.000000        2.125648         2
        13         5        14        21     4      180.000000        0.457749         2
        13        14        21         5     4      180.000000        0.457749         2
        13        21         5        14     4      180.000000        0.457749         2
        15        14        19        29     4      180.000000        1.019580         2
        15        19        29        14     4      180.000000        1.019580         2
        15        29        14        19     4      180.000000        1.019580         2
        16        11        25        26     4      180.000000       12.950243         2
        16        25        26        11     4      180.000000       12.950243         2
        16        26        11        25     4      180.000000       12.950243         2
        17        11        23        32     4      180.000000       14.010560         2
        17        23        32        11     4      180.000000       14.010560         2
        17        32        11        23     4      180.000000       14.010560         2

[ pairs ]
;       ai        aj funct
         1         3     1
         1         9     1
         1        39     1
         1        40     1
         1        43     1
         2         4     1
         2        27     1
         2        37     1
         2        38     1
         2        41     1
         3        27     1
         3        35     1
         3        36     1
         3        41     1
         4         9     1
         4        33     1
         4        34     1
         4        43     1
         5        15     1
         5        22     1
         5        28     1
         6        10     1
         6        33     1
         6        34     1
         6        39     1
         6        40     1
         7        11     1
         7        19     1
         7        26     1
         7        31     1
         7        42     1
         7        45     1
         7        46     1
         8        14     1
         8        18     1
         8        21     1
         8        29     1
         9        11     1
         9        25     1
         9        32     1
         9        41     1
        10        23     1
        10        26     1
        10        35     1
        10        36     1
        10        37     1
        10        38     1
        11        22     1
        11        44     1
        12        19     1
        12        23     1
        12        24     1
        12        25     1
        12        26     1
        12        32     1
        13        19     1
        13        20     1
        13        29     1
        14        22     1
        14        30     1
        15        18     1
        15        20     1
        15        21     1
        16        18     1
        16        23     1
        16        24     1
        16        27     1
        16        31     1
        16        32     1
        16        42     1
        16        45     1
        16        46     1
        17        18     1
        17        25     1
        17        26     1
        17        27     1
        17        31     1
        18        44     1
        19        28     1
        19        30     1
        20        22     1
        20        30     1
        21        28     1
        21        30     1
        22        24     1
        22        25     1
        22        29     1
        22        31     1
        23        43     1
        24        44     1
        25        47     1
        25        48     1
        25        49     1
        25        50     1
        26        43     1
        26        44     1
        27        33     1
        27        34     1
        27        39     1
        27        40     1
        28        29     1
        33        35     1
        33        36     1
        33        41     1
        34        35     1
        34        36     1
        34        41     1
        37        39     1
        37        40     1
        38        39     1
        38        40     1
        39        41     1
        40        41     1
        41        43     1
        42        47     1
        42        48     1
        42        49     1
        42        50     1
        47        49     1
        47        50     1
        48        49     1
        48        50     1
