; ITP file created by ByteFF-ML, 2026-02-21 08:22:21.852561

[ atomtypes ]
;name           bonded.type        at.num        mass        charge   ptype           sigma         epsilon
 c0bf                                   6      0.0000       0.00000       A     3.39825e-01     4.50572e-01
 c1bf                                   6      0.0000       0.00000       A     3.39678e-01     4.51033e-01
 c2bf                                   6      0.0000       0.00000       A     3.39678e-01     4.51033e-01
 c3bf                                   6      0.0000       0.00000       A     3.39825e-01     4.50572e-01
 c4bf                                   6      0.0000       0.00000       A     3.31468e-01     4.12718e-01
 o5bf                                   8      0.0000       0.00000       A     3.15644e-01     3.03351e-01
 c6bf                                   6      0.0000       0.00000       A     3.31451e-01     4.13942e-01
 c7bf                                   6      0.0000       0.00000       A     3.31482e-01     4.13404e-01
 c8bf                                   6      0.0000       0.00000       A     3.31542e-01     4.14110e-01
 c9bf                                   6      0.0000       0.00000       A     3.39714e-01     4.52178e-01
 c10bf                                  6      0.0000       0.00000       A     3.31289e-01     4.13393e-01
 c11bf                                  6      0.0000       0.00000       A     3.31646e-01     4.12777e-01
 c12bf                                  6      0.0000       0.00000       A     3.31488e-01     4.13497e-01
 c13bf                                  6      0.0000       0.00000       A     3.31494e-01     4.12507e-01
 c14bf                                  6      0.0000       0.00000       A     3.31504e-01     4.12314e-01
 c15bf                                  6      0.0000       0.00000       A     3.31408e-01     4.14183e-01
 c16bf                                  6      0.0000       0.00000       A     3.31262e-01     4.14236e-01
 c17bf                                  6      0.0000       0.00000       A     3.31256e-01     4.17640e-01
 c18bf                                  6      0.0000       0.00000       A     3.31474e-01     4.12750e-01
 c19bf                                  6      0.0000       0.00000       A     3.39803e-01     4.54281e-01
 f20bf                                  9      0.0000       0.00000       A     3.03295e-01     3.47905e-01
 f21bf                                  9      0.0000       0.00000       A     3.03414e-01     3.47611e-01
 o22bf                                  8      0.0000       0.00000       A     3.16224e-01     3.10258e-01
 n23bf                                  7      0.0000       0.00000       A     3.38488e-01     3.93278e-01
 o24bf                                  8      0.0000       0.00000       A     3.04755e-01     6.09869e-01
 n25bf                                  7      0.0000       0.00000       A     3.18260e-01     6.83261e-01
 n26bf                                  7      0.0000       0.00000       A     3.38476e-01     3.92153e-01
 n27bf                                  7      0.0000       0.00000       A     3.27859e-01     6.48853e-01
 h28bf                                  1      0.0000       0.00000       A     2.62547e-01     6.71514e-02
 h29bf                                  1      0.0000       0.00000       A     2.62373e-01     6.68945e-02
 h30bf                                  1      0.0000       0.00000       A     2.62520e-01     6.71642e-02
 h31bf                                  1      0.0000       0.00000       A     2.62452e-01     6.74148e-02
 h32bf                                  1      0.0000       0.00000       A     2.53572e-01     6.74323e-02
 h33bf                                  1      0.0000       0.00000       A     2.59805e-01     8.76130e-02
 h34bf                                  1      0.0000       0.00000       A     2.59805e-01     8.76130e-02
 h35bf                                  1      0.0000       0.00000       A     2.42083e-01     8.71949e-02
 h36bf                                  1      0.0000       0.00000       A     2.42083e-01     8.71949e-02
 h37bf                                  1      0.0000       0.00000       A     2.42083e-01     8.71949e-02
 h38bf                                  1      0.0000       0.00000       A     2.42083e-01     8.71949e-02
 h39bf                                  1      0.0000       0.00000       A     2.59805e-01     8.76130e-02
 h40bf                                  1      0.0000       0.00000       A     2.59805e-01     8.76130e-02
 h41bf                                  1      0.0000       0.00000       A     2.42326e-01     8.58414e-02
 h42bf                                  1      0.0000       0.00000       A     2.42239e-01     8.71374e-02
 h43bf                                  1      0.0000       0.00000       A     2.42239e-01     8.71374e-02
 h44bf                                  1      0.0000       0.00000       A     1.10329e-01     4.16526e-02
 c45bf                                  6      0.0000       0.00000       A     3.39691e-01     4.50404e-01
 h46bf                                  1      0.0000       0.00000       A     2.60137e-01     8.72938e-02
 h47bf                                  1      0.0000       0.00000       A     2.60137e-01     8.72938e-02
 c48bf                                  6      0.0000       0.00000       A     3.39805e-01     4.51075e-01
 h49bf                                  1      0.0000       0.00000       A     2.42770e-01     8.65979e-02
 h50bf                                  1      0.0000       0.00000       A     2.42770e-01     8.65979e-02
 s51bf                                 16      0.0000       0.00000       A     4.05885e-01     2.59925e-01
 o52bf                                  8      0.0000       0.00000       A     3.05061e-01     6.09438e-01
 o53bf                                  8      0.0000       0.00000       A     3.05061e-01     6.09438e-01
 c54bf                                  6      0.0000       0.00000       A     3.39619e-01     4.50435e-01
 h55bf                                  1      0.0000       0.00000       A     2.42069e-01     8.76705e-02
 h56bf                                  1      0.0000       0.00000       A     2.42069e-01     8.76705e-02
 h57bf                                  1      0.0000       0.00000       A     2.42069e-01     8.76705e-02

[ moleculetype ]
;name             nrexcl
 2p                    3

[ atoms ]
;       nr            type      resi   res      atom      cgnr      charge          mass ; qtot
         1            c0bf         1   UNL        c0         1    -0.12568       12.0110 ; qtot   -0.126
         2            c1bf         1   UNL        c1         2     0.15457       12.0110 ; qtot    0.029
         3            c2bf         1   UNL        c2         3     0.15457       12.0110 ; qtot    0.183
         4            c3bf         1   UNL        c3         4    -0.12568       12.0110 ; qtot    0.058
         5            c4bf         1   UNL        c4         5    -0.17396       12.0110 ; qtot   -0.116
         6            o5bf         1   UNL        o5         6    -0.46215       15.9990 ; qtot   -0.578
         7            c6bf         1   UNL        c6         7     0.56766       12.0110 ; qtot   -0.011
         8            c7bf         1   UNL        c7         8     0.17941       12.0110 ; qtot    0.169
         9            c8bf         1   UNL        c8         9     0.41180       12.0110 ; qtot    0.581
        10            c9bf         1   UNL        c9        10     0.24222       12.0110 ; qtot    0.823
        11           c10bf         1   UNL       c10        11    -0.27458       12.0110 ; qtot    0.548
        12           c11bf         1   UNL       c11        12    -0.09418       12.0110 ; qtot    0.454
        13           c12bf         1   UNL       c12        13     0.18085       12.0110 ; qtot    0.635
        14           c13bf         1   UNL       c13        14    -0.14500       12.0110 ; qtot    0.490
        15           c14bf         1   UNL       c14        15    -0.07757       12.0110 ; qtot    0.412
        16           c15bf         1   UNL       c15        16     0.31157       12.0110 ; qtot    0.724
        17           c16bf         1   UNL       c16        17     0.20343       12.0110 ; qtot    0.927
        18           c17bf         1   UNL       c17        18     0.00819       12.0110 ; qtot    0.935
        19           c18bf         1   UNL       c18        19     0.05605       12.0110 ; qtot    0.992
        20           c19bf         1   UNL       c19        20     0.09802       12.0110 ; qtot    1.090
        21           f20bf         1   UNL       f20        21    -0.16069       18.9980 ; qtot    0.929
        22           f21bf         1   UNL       f21        22    -0.17407       18.9980 ; qtot    0.755
        23           o22bf         1   UNL       o22        23    -0.21296       15.9990 ; qtot    0.542
        24           n23bf         1   UNL       n23        24    -0.25003       14.0070 ; qtot    0.292
        25           o24bf         1   UNL       o24        25    -0.53253       15.9990 ; qtot   -0.241
        26           n25bf         1   UNL       n25        26    -0.37257       14.0070 ; qtot   -0.613
        27           n26bf         1   UNL       n26        27    -0.30378       14.0070 ; qtot   -0.917
        28           n27bf         1   UNL       n27        28    -0.90583       14.0070 ; qtot   -1.823
        29           h28bf         1   UNL       h28        29     0.14202        1.0080 ; qtot   -1.681
        30           h29bf         1   UNL       h29        30     0.14072        1.0080 ; qtot   -1.540
        31           h30bf         1   UNL       h30        31     0.15735        1.0080 ; qtot   -1.383
        32           h31bf         1   UNL       h31        32     0.20692        1.0080 ; qtot   -1.176
        33           h32bf         1   UNL       h32        33     0.02850        1.0080 ; qtot   -1.147
        34           h33bf         1   UNL       h33        34     0.05821        1.0080 ; qtot   -1.089
        35           h34bf         1   UNL       h34        35     0.05821        1.0080 ; qtot   -1.031
        36           h35bf         1   UNL       h35        36     0.04708        1.0080 ; qtot   -0.984
        37           h36bf         1   UNL       h36        37     0.04708        1.0080 ; qtot   -0.937
        38           h37bf         1   UNL       h37        38     0.04708        1.0080 ; qtot   -0.890
        39           h38bf         1   UNL       h38        39     0.04708        1.0080 ; qtot   -0.843
        40           h39bf         1   UNL       h39        40     0.05821        1.0080 ; qtot   -0.784
        41           h40bf         1   UNL       h40        41     0.05821        1.0080 ; qtot   -0.726
        42           h41bf         1   UNL       h41        42     0.06788        1.0080 ; qtot   -0.658
        43           h42bf         1   UNL       h42        43     0.07564        1.0080 ; qtot   -0.583
        44           h43bf         1   UNL       h43        44     0.07564        1.0080 ; qtot   -0.507
        45           h44bf         1   UNL       h44        45     0.49590        1.0080 ; qtot   -0.011
        46           c45bf         1   UNL       c45        46    -0.06695       12.0110 ; qtot   -0.078
        47           h46bf         1   UNL       h46        47     0.07150        1.0080 ; qtot   -0.007
        48           h47bf         1   UNL       h47        48     0.07150        1.0080 ; qtot    0.065
        49           c48bf         1   UNL       c48        49    -0.27520       12.0110 ; qtot   -0.210
        50           h49bf         1   UNL       h49        50     0.10182        1.0080 ; qtot   -0.109
        51           h50bf         1   UNL       h50        51     0.10182        1.0080 ; qtot   -0.007
        52           s51bf         1   UNL       s51        52     1.00707       32.0670 ; qtot    1.000
        53           o52bf         1   UNL       o52        53    -0.50586       15.9990 ; qtot    0.495
        54           o53bf         1   UNL       o53        54    -0.50586       15.9990 ; qtot   -0.011
        55           c54bf         1   UNL       c54        55    -0.30439       12.0110 ; qtot   -0.316
        56           h55bf         1   UNL       h55        56     0.10524        1.0080 ; qtot   -0.210
        57           h56bf         1   UNL       h56        57     0.10524        1.0080 ; qtot   -0.105
        58           h57bf         1   UNL       h57        58     0.10526        1.0080 ; qtot    0.000

[ bonds ]
;       ai        aj funct               r               k
         1         2     1        0.153597   178293.892139
         1        10     1        0.154056   172093.226611
         1        34     1        0.109441   299169.023926
         1        35     1        0.109441   299169.023926
         2         6     1        0.143005   196789.616040
         2        36     1        0.109640   291280.534229
         2        37     1        0.109640   291280.534229
         3         4     1        0.153597   178293.892139
         3         6     1        0.143005   196789.616040
         3        38     1        0.109640   291280.534229
         3        39     1        0.109640   291280.534229
         4        10     1        0.154056   172093.226611
         4        40     1        0.109441   299169.023926
         4        41     1        0.109441   299169.023926
         5         8     1        0.139038   316524.477588
         5        13     1        0.139274   306854.774512
         5        31     1        0.108387   329224.337451
         7        18     1        0.147616   177374.709424
         7        25     1        0.123261   583364.261621
         7        26     1        0.140867   187291.739404
         8        19     1        0.139881   278838.982227
         8        21     1        0.134995   302917.054395
         9        24     1        0.136147   237289.543457
         9        27     1        0.134734   275192.946973
         9        28     1        0.135795   337345.138232
        10        28     1        0.146342   195657.096313
        10        42     1        0.109339   302297.626270
        11        12     1        0.143033   269131.586377
        11        16     1        0.141920   249107.709082
        11        17     1        0.140344   290082.230908
        12        18     1        0.135656   414143.346924
        12        32     1        0.108546   321757.107910
        13        14     1        0.139128   306394.902246
        13        22     1        0.135607   292150.813379
        14        15     1        0.139766   317517.437012
        14        29     1        0.108444   326597.718066
        15        19     1        0.139462   301245.293066
        15        30     1        0.108442   325811.328320
        16        26     1        0.137730   268133.059863
        16        27     1        0.133471   326738.044482
        17        24     1        0.132440   375596.612549
        17        33     1        0.108989   309515.639160
        18        23     1        0.136899   261401.196924
        19        23     1        0.138211   245996.574121
        20        26     1        0.147669   168237.072021
        20        43     1        0.108944   309471.076904
        20        44     1        0.108944   309471.076904
        20        46     1        0.153546   182477.292017
        28        45     1        0.101197   417437.097754
        46        47     1        0.109334   302621.973096
        46        48     1        0.109334   302621.973096
        46        49     1        0.152958   184651.074609
        49        50     1        0.109224   311374.076758
        49        51     1        0.109224   311374.076758
        49        52     1        0.182485   126625.207788
        52        53     1        0.147428   501737.751660
        52        54     1        0.147428   501737.751660
        52        55     1        0.181061   138456.652710
        55        56     1        0.109028   319483.360303
        55        57     1        0.109028   319483.360303
        55        58     1        0.109028   319483.360303

[ angles ]
;       ai        aj        ak funct           theta             cth
         1         2         6     1      112.057350      650.229837
         1         2        36     1      110.599220      486.660342
         1         2        37     1      110.599220      486.660342
         1        10         4     1      109.670731      539.148838
         1        10        28     1      111.413162      594.575027
         1        10        42     1      108.438194      470.541861
         2         1        10     1      110.143417      679.501302
         2         1        34     1      109.782654      502.446362
         2         1        35     1      109.782654      502.446362
         2         6         3     1      112.347824      593.219262
         3         4        10     1      110.143417      679.501302
         3         4        40     1      109.782654      502.446362
         3         4        41     1      109.782654      502.446362
         4         3         6     1      112.057350      650.229837
         4         3        38     1      110.599220      486.660342
         4         3        39     1      110.599220      486.660342
         4        10        28     1      111.413162      594.575027
         4        10        42     1      108.438194      470.541861
         5         8        19     1      121.913330      589.890372
         5         8        21     1      119.021118      546.594501
         5        13        14     1      122.381203      586.088790
         5        13        22     1      118.423096      577.916724
         6         2        36     1      107.737404      465.042190
         6         2        37     1      107.737404      465.042190
         6         3        38     1      107.737404      465.042190
         6         3        39     1      107.737404      465.042190
         7        18        12     1      122.009277      723.613466
         7        18        23     1      116.081711      324.967250
         7        26        16     1      122.876221      595.948157
         7        26        20     1      116.939049      618.485678
         8         5        13     1      117.606956      745.241738
         8         5        31     1      120.750504      415.603623
         8        19        15     1      118.750526      612.866939
         8        19        23     1      120.038025      362.403759
         9        24        17     1      115.954872      932.625577
         9        27        16     1      116.572067      755.769284
         9        28        10     1      124.733902      450.652411
         9        28        45     1      114.010254      481.843565
        10         1        34     1      109.667801      496.043027
        10         1        35     1      109.667801      496.043027
        10         4        40     1      109.667801      496.043027
        10         4        41     1      109.667801      496.043027
        10        28        45     1      118.351364      413.441906
        11        12        18     1      119.910011      513.439736
        11        12        32     1      120.050766      408.504945
        11        16        26     1      119.473244      591.935256
        11        16        27     1      122.281921      728.203315
        11        17        24     1      123.631920      736.077299
        11        17        33     1      119.652893      404.332021
        12        11        16     1      119.948448      693.015668
        12        11        17     1      124.944153      443.965615
        12        18        23     1      121.705467      450.043351
        13         5        31     1      121.558578      415.206138
        13        14        15     1      118.578598      692.396968
        13        14        29     1      119.971153      420.856319
        14        13        22     1      119.175308      576.491115
        14        15        19     1      120.569313      694.362878
        14        15        30     1      120.676376      412.191418
        15        14        29     1      121.452782      418.521557
        15        19        23     1      120.941628      501.739750
        16        11        17     1      115.172585      853.414124
        16        26        20     1      119.607162      527.041056
        18         7        25     1      122.689621      317.228708
        18         7        26     1      115.727966      679.789041
        18        12        32     1      120.089622      428.654618
        18        23        19     1      118.732285      413.925675
        19         8        21     1      119.050255      408.388879
        19        15        30     1      118.790672      407.974571
        20        46        47     1      109.046921      486.447810
        20        46        48     1      109.046921      486.447810
        20        46        49     1      112.446388      570.252782
        24         9        27     1      126.172409      634.401745
        24         9        28     1      116.854393      599.021804
        24        17        33     1      116.349670      436.996283
        25         7        26     1      121.218399      602.127819
        26        16        27     1      118.145042      548.880264
        26        20        43     1      107.000465      519.585178
        26        20        44     1      107.000465      519.585178
        26        20        46     1      111.800735      557.814103
        27         9        28     1      116.398056      532.239262
        28        10        42     1      106.415306      519.306983
        34         1        35     1      107.383133      356.326501
        36         2        37     1      107.873230      341.256574
        38         3        39     1      107.873230      341.256574
        40         4        41     1      107.383133      356.326501
        43        20        44     1      109.212952      340.293761
        43        20        46     1      110.463120      459.584399
        44        20        46     1      110.463120      459.584399
        46        49        50     1      112.212601      488.419370
        46        49        51     1      112.212601      488.419370
        46        49        52     1      111.971497      683.097629
        47        46        48     1      107.335251      358.005694
        47        46        49     1      109.190292      497.349410
        48        46        49     1      109.190292      497.349410
        49        52        53     1      107.761124      657.522661
        49        52        54     1      107.761124      657.522661
        49        52        55     1      103.648170      788.342569
        50        49        51     1      109.168983      342.817881
        50        49        52     1      105.600784      579.484192
        51        49        52     1      105.600784      579.484192
        52        55        56     1      108.004837      565.469554
        52        55        57     1      108.004837      565.469554
        52        55        58     1      108.004837      565.469554
        53        52        54     1      120.267960      727.496575
        53        52        55     1      107.555336      702.251036
        54        52        55     1      107.555336      702.251036
        56        55        57     1      111.046402      346.141281
        56        55        58     1      111.046402      346.141281
        57        55        58     1      111.046402      346.141281

[ dihedrals ] ; propers for gromacs 4.5 or higher, use funct 9
;       ai        aj        ak        al funct           phase               k        pn
         1         2         6         3     9        0.000000        0.656407         1
         1         2         6         3     9      180.000000       -0.958141         2
         1         2         6         3     9        0.000000        0.587773         3
         1         2         6         3     9      180.000000        0.053351         4
         1        10         4         3     9        0.000000        2.989875         1
         1        10         4         3     9      180.000000       -3.284302         2
         1        10         4         3     9        0.000000        0.008029         3
         1        10         4         3     9      180.000000        0.128316         4
         1        10         4        40     9        0.000000       -0.034793         1
         1        10         4        40     9      180.000000        0.064745         2
         1        10         4        40     9        0.000000        0.298913         3
         1        10         4        40     9      180.000000        0.014470         4
         1        10         4        41     9        0.000000       -0.034793         1
         1        10         4        41     9      180.000000        0.064745         2
         1        10         4        41     9        0.000000        0.298913         3
         1        10         4        41     9      180.000000        0.014470         4
         1        10        28         9     9        0.000000       -0.203113         1
         1        10        28         9     9      180.000000       -0.228725         2
         1        10        28         9     9        0.000000        0.538014         3
         1        10        28         9     9      180.000000        0.024242         4
         1        10        28        45     9        0.000000       -0.211311         1
         1        10        28        45     9      180.000000        0.210201         2
         1        10        28        45     9        0.000000        0.038851         3
         1        10        28        45     9      180.000000       -0.020037         4
         2         1        10         4     9        0.000000        2.989875         1
         2         1        10         4     9      180.000000       -3.284302         2
         2         1        10         4     9        0.000000        0.008029         3
         2         1        10         4     9      180.000000        0.128316         4
         2         1        10        28     9        0.000000       -1.913323         1
         2         1        10        28     9      180.000000       -1.584994         2
         2         1        10        28     9        0.000000        0.106704         3
         2         1        10        28     9      180.000000        0.296263         4
         2         1        10        42     9        0.000000       -0.000719         1
         2         1        10        42     9      180.000000       -0.002826         2
         2         1        10        42     9        0.000000        0.168043         3
         2         1        10        42     9      180.000000        0.040671         4
         2         6         3         4     9        0.000000        0.656407         1
         2         6         3         4     9      180.000000       -0.958141         2
         2         6         3         4     9        0.000000        0.587773         3
         2         6         3         4     9      180.000000        0.053351         4
         2         6         3        38     9        0.000000       -0.046698         1
         2         6         3        38     9      180.000000        0.044371         2
         2         6         3        38     9        0.000000        0.473257         3
         2         6         3        38     9      180.000000       -0.000534         4
         2         6         3        39     9        0.000000       -0.046698         1
         2         6         3        39     9      180.000000        0.044371         2
         2         6         3        39     9        0.000000        0.473257         3
         2         6         3        39     9      180.000000       -0.000534         4
         3         4        10        28     9        0.000000       -1.913323         1
         3         4        10        28     9      180.000000       -1.584994         2
         3         4        10        28     9        0.000000        0.106704         3
         3         4        10        28     9      180.000000        0.296263         4
         3         4        10        42     9        0.000000       -0.000719         1
         3         4        10        42     9      180.000000       -0.002826         2
         3         4        10        42     9        0.000000        0.168043         3
         3         4        10        42     9      180.000000        0.040671         4
         3         6         2        36     9        0.000000       -0.046698         1
         3         6         2        36     9      180.000000        0.044371         2
         3         6         2        36     9        0.000000        0.473257         3
         3         6         2        36     9      180.000000       -0.000534         4
         3         6         2        37     9        0.000000       -0.046698         1
         3         6         2        37     9      180.000000        0.044371         2
         3         6         2        37     9        0.000000        0.473257         3
         3         6         2        37     9      180.000000       -0.000534         4
         4        10         1        34     9        0.000000       -0.034793         1
         4        10         1        34     9      180.000000        0.064745         2
         4        10         1        34     9        0.000000        0.298913         3
         4        10         1        34     9      180.000000        0.014470         4
         4        10         1        35     9        0.000000       -0.034793         1
         4        10         1        35     9      180.000000        0.064745         2
         4        10         1        35     9        0.000000        0.298913         3
         4        10         1        35     9      180.000000        0.014470         4
         4        10        28         9     9        0.000000       -0.203113         1
         4        10        28         9     9      180.000000       -0.228725         2
         4        10        28         9     9        0.000000        0.538014         3
         4        10        28         9     9      180.000000        0.024242         4
         4        10        28        45     9        0.000000       -0.211311         1
         4        10        28        45     9      180.000000        0.210201         2
         4        10        28        45     9        0.000000        0.038851         3
         4        10        28        45     9      180.000000       -0.020037         4
         5         8        19        15     9        0.000000       -0.033769         1
         5         8        19        15     9      180.000000       15.070050         2
         5         8        19        15     9        0.000000       -0.822733         3
         5         8        19        15     9      180.000000       -0.166007         4
         5         8        19        23     9        0.000000        0.213515         1
         5         8        19        23     9      180.000000       15.796953         2
         5         8        19        23     9        0.000000        0.046168         3
         5         8        19        23     9      180.000000       -0.230207         4
         5        13        14        15     9        0.000000       -0.084562         1
         5        13        14        15     9      180.000000       17.436868         2
         5        13        14        15     9        0.000000       -1.215052         3
         5        13        14        15     9      180.000000       -0.350359         4
         5        13        14        29     9        0.000000        0.222596         1
         5        13        14        29     9      180.000000       12.990702         2
         5        13        14        29     9        0.000000       -0.533192         3
         5        13        14        29     9      180.000000        0.123340         4
         6         2         1        10     9        0.000000        0.588019         1
         6         2         1        10     9      180.000000       -1.553809         2
         6         2         1        10     9        0.000000        0.318518         3
         6         2         1        10     9      180.000000        0.071837         4
         6         2         1        34     9        0.000000       -0.070257         1
         6         2         1        34     9      180.000000        0.057420         2
         6         2         1        34     9        0.000000        0.194875         3
         6         2         1        34     9      180.000000       -0.007724         4
         6         2         1        35     9        0.000000       -0.070257         1
         6         2         1        35     9      180.000000        0.057420         2
         6         2         1        35     9        0.000000        0.194875         3
         6         2         1        35     9      180.000000       -0.007724         4
         6         3         4        10     9        0.000000        0.588019         1
         6         3         4        10     9      180.000000       -1.553809         2
         6         3         4        10     9        0.000000        0.318518         3
         6         3         4        10     9      180.000000        0.071837         4
         6         3         4        40     9        0.000000       -0.070257         1
         6         3         4        40     9      180.000000        0.057420         2
         6         3         4        40     9        0.000000        0.194875         3
         6         3         4        40     9      180.000000       -0.007724         4
         6         3         4        41     9        0.000000       -0.070257         1
         6         3         4        41     9      180.000000        0.057420         2
         6         3         4        41     9        0.000000        0.194875         3
         6         3         4        41     9      180.000000       -0.007724         4
         7        18        12        11     9        0.000000       -0.294387         1
         7        18        12        11     9      180.000000       19.731700         2
         7        18        12        11     9        0.000000       -0.835918         3
         7        18        12        11     9      180.000000       -0.807694         4
         7        18        12        32     9        0.000000       -0.007876         1
         7        18        12        32     9      180.000000       14.955669         2
         7        18        12        32     9        0.000000       -0.164698         3
         7        18        12        32     9      180.000000        0.078203         4
         7        18        23        19     9        0.000000        1.413614         1
         7        18        23        19     9      180.000000        3.349842         2
         7        18        23        19     9        0.000000        1.501487         3
         7        18        23        19     9      180.000000       -0.336321         4
         7        26        16        11     9        0.000000       -1.669432         1
         7        26        16        11     9      180.000000        5.656352         2
         7        26        16        11     9        0.000000       -0.778489         3
         7        26        16        11     9      180.000000        0.267473         4
         7        26        16        27     9        0.000000        0.701185         1
         7        26        16        27     9      180.000000        7.683056         2
         7        26        16        27     9        0.000000        0.281058         3
         7        26        16        27     9      180.000000       -0.188805         4
         7        26        20        43     9        0.000000        0.487587         1
         7        26        20        43     9      180.000000        0.246376         2
         7        26        20        43     9        0.000000       -0.161880         3
         7        26        20        43     9      180.000000        0.363221         4
         7        26        20        44     9        0.000000        0.487587         1
         7        26        20        44     9      180.000000        0.246376         2
         7        26        20        44     9        0.000000       -0.161880         3
         7        26        20        44     9      180.000000        0.363221         4
         7        26        20        46     9        0.000000       -0.815685         1
         7        26        20        46     9      180.000000       -0.744459         2
         7        26        20        46     9        0.000000        0.253243         3
         7        26        20        46     9      180.000000       -0.038737         4
         8         5        13        14     9        0.000000       -0.101773         1
         8         5        13        14     9      180.000000       17.261374         2
         8         5        13        14     9        0.000000       -1.245547         3
         8         5        13        14     9      180.000000       -0.369105         4
         8         5        13        22     9        0.000000        0.202544         1
         8         5        13        22     9      180.000000       22.811181         2
         8         5        13        22     9        0.000000        0.550755         3
         8         5        13        22     9      180.000000       -0.701551         4
         8        19        15        14     9        0.000000       -0.019541         1
         8        19        15        14     9      180.000000       17.479613         2
         8        19        15        14     9        0.000000       -1.174083         3
         8        19        15        14     9      180.000000       -0.342804         4
         8        19        15        30     9        0.000000        0.103759         1
         8        19        15        30     9      180.000000       12.825624         2
         8        19        15        30     9        0.000000       -0.551226         3
         8        19        15        30     9      180.000000        0.193193         4
         8        19        23        18     9        0.000000        0.392896         1
         8        19        23        18     9      180.000000        2.044104         2
         8        19        23        18     9        0.000000        0.320334         3
         8        19        23        18     9      180.000000       -0.085037         4
         9        24        17        11     9        0.000000       -0.351880         1
         9        24        17        11     9      180.000000       20.901905         2
         9        24        17        11     9        0.000000       -1.476279         3
         9        24        17        11     9      180.000000       -0.227830         4
         9        24        17        33     9        0.000000        0.357883         1
         9        24        17        33     9      180.000000       19.018619         2
         9        24        17        33     9        0.000000       -0.094002         3
         9        24        17        33     9      180.000000       -0.241065         4
         9        27        16        11     9        0.000000       -0.380343         1
         9        27        16        11     9      180.000000       12.734458         2
         9        27        16        11     9        0.000000       -0.689520         3
         9        27        16        11     9      180.000000       -0.071776         4
         9        27        16        26     9        0.000000       -0.258641         1
         9        27        16        26     9      180.000000       16.592452         2
         9        27        16        26     9        0.000000        0.563038         3
         9        27        16        26     9      180.000000       -0.530574         4
         9        28        10        42     9        0.000000       -0.159174         1
         9        28        10        42     9      180.000000        0.215923         2
         9        28        10        42     9        0.000000        0.641603         3
         9        28        10        42     9      180.000000        0.037921         4
        10         1         2        36     9        0.000000       -0.016397         1
        10         1         2        36     9      180.000000        0.056039         2
        10         1         2        36     9        0.000000        0.282909         3
        10         1         2        36     9      180.000000        0.009404         4
        10         1         2        37     9        0.000000       -0.016397         1
        10         1         2        37     9      180.000000        0.056039         2
        10         1         2        37     9        0.000000        0.282909         3
        10         1         2        37     9      180.000000        0.009404         4
        10         4         3        38     9        0.000000       -0.016397         1
        10         4         3        38     9      180.000000        0.056039         2
        10         4         3        38     9        0.000000        0.282909         3
        10         4         3        38     9      180.000000        0.009404         4
        10         4         3        39     9        0.000000       -0.016397         1
        10         4         3        39     9      180.000000        0.056039         2
        10         4         3        39     9        0.000000        0.282909         3
        10         4         3        39     9      180.000000        0.009404         4
        10        28         9        24     9        0.000000        0.387695         1
        10        28         9        24     9      180.000000        7.925193         2
        10        28         9        24     9        0.000000        0.630611         3
        10        28         9        24     9      180.000000       -0.895939         4
        10        28         9        27     9        0.000000       -0.031310         1
        10        28         9        27     9      180.000000        8.520450         2
        10        28         9        27     9        0.000000        0.339469         3
        10        28         9        27     9      180.000000       -0.740009         4
        11        12        18        23     9        0.000000       -0.497941         1
        11        12        18        23     9      180.000000       27.317802         2
        11        12        18        23     9        0.000000       -0.103955         3
        11        12        18        23     9      180.000000       -1.525768         4
        11        16        26        20     9        0.000000        0.130050         1
        11        16        26        20     9      180.000000        7.954759         2
        11        16        26        20     9        0.000000        0.152348         3
        11        16        26        20     9      180.000000        0.002592         4
        12        11        16        26     9        0.000000        0.226844         1
        12        11        16        26     9      180.000000       13.722659         2
        12        11        16        26     9        0.000000       -0.187825         3
        12        11        16        26     9      180.000000       -0.575926         4
        12        11        16        27     9        0.000000        0.180100         1
        12        11        16        27     9      180.000000       12.619218         2
        12        11        16        27     9        0.000000        0.104603         3
        12        11        16        27     9      180.000000       -0.379557         4
        12        11        17        24     9        0.000000        0.052547         1
        12        11        17        24     9      180.000000       14.157587         2
        12        11        17        24     9        0.000000        0.079093         3
        12        11        17        24     9      180.000000       -0.519868         4
        12        11        17        33     9        0.000000        0.123540         1
        12        11        17        33     9      180.000000       12.165825         2
        12        11        17        33     9        0.000000        0.210553         3
        12        11        17        33     9      180.000000       -0.122556         4
        12        18         7        25     9        0.000000        0.442983         1
        12        18         7        25     9      180.000000        5.741969         2
        12        18         7        25     9        0.000000       -0.022785         3
        12        18         7        25     9      180.000000       -0.406611         4
        12        18         7        26     9        0.000000        2.065738         1
        12        18         7        26     9      180.000000        1.782356         2
        12        18         7        26     9        0.000000        0.187658         3
        12        18         7        26     9      180.000000        0.105214         4
        12        18        23        19     9        0.000000       -0.347315         1
        12        18        23        19     9      180.000000        4.738828         2
        12        18        23        19     9        0.000000       -1.550340         3
        12        18        23        19     9      180.000000        0.143112         4
        13         5         8        19     9        0.000000       -0.159544         1
        13         5         8        19     9      180.000000       17.441704         2
        13         5         8        19     9        0.000000       -1.253452         3
        13         5         8        19     9      180.000000       -0.342164         4
        13         5         8        21     9        0.000000        0.535263         1
        13         5         8        21     9      180.000000       22.924715         2
        13         5         8        21     9        0.000000        0.562820         3
        13         5         8        21     9      180.000000       -0.548398         4
        13        14        15        19     9        0.000000       -0.193831         1
        13        14        15        19     9      180.000000       18.718306         2
        13        14        15        19     9        0.000000       -1.470902         3
        13        14        15        19     9      180.000000       -0.444338         4
        13        14        15        30     9        0.000000        0.152982         1
        13        14        15        30     9      180.000000       14.549566         2
        13        14        15        30     9        0.000000       -0.624237         3
        13        14        15        30     9      180.000000        0.081753         4
        14        13         5        31     9        0.000000        0.181711         1
        14        13         5        31     9      180.000000       12.249439         2
        14        13         5        31     9        0.000000       -0.437418         3
        14        13         5        31     9      180.000000        0.175565         4
        14        15        19        23     9        0.000000        0.435183         1
        14        15        19        23     9      180.000000       18.963855         2
        14        15        19        23     9        0.000000        0.317361         3
        14        15        19        23     9      180.000000       -0.395936         4
        15        14        13        22     9        0.000000        0.505280         1
        15        14        13        22     9      180.000000       23.564142         2
        15        14        13        22     9        0.000000        0.449858         3
        15        14        13        22     9      180.000000       -0.661252         4
        15        19         8        21     9        0.000000        0.586984         1
        15        19         8        21     9      180.000000       18.000233         2
        15        19         8        21     9        0.000000        0.390466         3
        15        19         8        21     9      180.000000       -0.347261         4
        15        19        23        18     9        0.000000       -0.684443         1
        15        19        23        18     9      180.000000        3.417237         2
        15        19        23        18     9        0.000000       -0.700054         3
        15        19        23        18     9      180.000000        0.147253         4
        16        11        12        18     9        0.000000       -0.755326         1
        16        11        12        18     9      180.000000       11.967360         2
        16        11        12        18     9        0.000000       -1.749089         3
        16        11        12        18     9      180.000000       -0.255022         4
        16        11        12        32     9        0.000000        0.099908         1
        16        11        12        32     9      180.000000        8.203374         2
        16        11        12        32     9        0.000000       -0.259741         3
        16        11        12        32     9      180.000000       -0.173079         4
        16        11        17        24     9        0.000000        0.182728         1
        16        11        17        24     9      180.000000       14.523251         2
        16        11        17        24     9        0.000000       -0.248897         3
        16        11        17        24     9      180.000000       -0.390342         4
        16        11        17        33     9        0.000000        0.214365         1
        16        11        17        33     9      180.000000       12.109717         2
        16        11        17        33     9        0.000000       -0.260722         3
        16        11        17        33     9      180.000000       -0.222266         4
        16        26         7        18     9        0.000000       -1.577645         1
        16        26         7        18     9      180.000000        4.548805         2
        16        26         7        18     9        0.000000       -0.053345         3
        16        26         7        18     9      180.000000        0.039528         4
        16        26         7        25     9        0.000000        0.188366         1
        16        26         7        25     9      180.000000       10.176084         2
        16        26         7        25     9        0.000000       -0.562161         3
        16        26         7        25     9      180.000000       -0.518241         4
        16        26        20        43     9        0.000000       -0.227397         1
        16        26        20        43     9      180.000000        0.182073         2
        16        26        20        43     9        0.000000       -0.119836         3
        16        26        20        43     9      180.000000        0.391411         4
        16        26        20        44     9        0.000000       -0.227397         1
        16        26        20        44     9      180.000000        0.182073         2
        16        26        20        44     9        0.000000       -0.119836         3
        16        26        20        44     9      180.000000        0.391411         4
        16        26        20        46     9        0.000000       -0.815382         1
        16        26        20        46     9      180.000000       -0.970147         2
        16        26        20        46     9        0.000000        0.212146         3
        16        26        20        46     9      180.000000       -0.008186         4
        16        27         9        24     9        0.000000        0.742760         1
        16        27         9        24     9      180.000000        9.627597         2
        16        27         9        24     9        0.000000        0.563130         3
        16        27         9        24     9      180.000000       -0.393478         4
        16        27         9        28     9        0.000000        1.098983         1
        16        27         9        28     9      180.000000       15.396672         2
        16        27         9        28     9        0.000000        0.196628         3
        16        27         9        28     9      180.000000       -0.965333         4
        17        11        12        18     9        0.000000       -0.660843         1
        17        11        12        18     9      180.000000        8.788017         2
        17        11        12        18     9        0.000000       -0.842360         3
        17        11        12        18     9      180.000000        0.026900         4
        17        11        12        32     9        0.000000       -0.815890         1
        17        11        12        32     9      180.000000        4.929518         2
        17        11        12        32     9        0.000000       -0.368799         3
        17        11        12        32     9      180.000000       -0.065384         4
        17        11        16        26     9        0.000000       -0.495970         1
        17        11        16        26     9      180.000000       12.383140         2
        17        11        16        26     9        0.000000       -0.524040         3
        17        11        16        26     9      180.000000       -0.406210         4
        17        11        16        27     9        0.000000       -0.121491         1
        17        11        16        27     9      180.000000       11.221455         2
        17        11        16        27     9        0.000000        0.037004         3
        17        11        16        27     9      180.000000       -0.294668         4
        17        24         9        27     9        0.000000        0.719657         1
        17        24         9        27     9      180.000000        9.927608         2
        17        24         9        27     9        0.000000        0.789124         3
        17        24         9        27     9      180.000000       -0.541414         4
        17        24         9        28     9        0.000000        1.258938         1
        17        24         9        28     9      180.000000       15.073808         2
        17        24         9        28     9        0.000000        0.447281         3
        17        24         9        28     9      180.000000       -0.788275         4
        18         7        26        20     9        0.000000        0.816974         1
        18         7        26        20     9      180.000000        8.951078         2
        18         7        26        20     9        0.000000        0.396586         3
        18         7        26        20     9      180.000000       -0.097223         4
        19         8         5        31     9        0.000000        0.204291         1
        19         8         5        31     9      180.000000       12.330683         2
        19         8         5        31     9        0.000000       -0.429751         3
        19         8         5        31     9      180.000000        0.180492         4
        19        15        14        29     9        0.000000        0.085472         1
        19        15        14        29     9      180.000000       14.240721         2
        19        15        14        29     9        0.000000       -0.502525         3
        19        15        14        29     9      180.000000        0.093111         4
        20        26         7        25     9        0.000000        0.169022         1
        20        26         7        25     9      180.000000       10.990954         2
        20        26         7        25     9        0.000000       -1.113132         3
        20        26         7        25     9      180.000000        0.349405         4
        20        26        16        27     9        0.000000       -0.640015         1
        20        26        16        27     9      180.000000        9.427712         2
        20        26        16        27     9        0.000000       -0.058883         3
        20        26        16        27     9      180.000000        0.000227         4
        20        46        49        50     9        0.000000       -0.052902         1
        20        46        49        50     9      180.000000        0.089447         2
        20        46        49        50     9        0.000000        0.581046         3
        20        46        49        50     9      180.000000        0.032483         4
        20        46        49        51     9        0.000000       -0.052902         1
        20        46        49        51     9      180.000000        0.089447         2
        20        46        49        51     9        0.000000        0.581046         3
        20        46        49        51     9      180.000000        0.032483         4
        20        46        49        52     9        0.000000       -1.396573         1
        20        46        49        52     9      180.000000       -0.586029         2
        20        46        49        52     9        0.000000        0.163822         3
        20        46        49        52     9      180.000000        0.044927         4
        21         8         5        31     9        0.000000        0.356407         1
        21         8         5        31     9      180.000000       15.755417         2
        21         8         5        31     9        0.000000        0.173168         3
        21         8         5        31     9      180.000000        0.272104         4
        21         8        19        23     9        0.000000       -0.107429         1
        21         8        19        23     9      180.000000       20.900297         2
        21         8        19        23     9        0.000000        0.246361         3
        21         8        19        23     9      180.000000       -0.890880         4
        22        13         5        31     9        0.000000        0.302040         1
        22        13         5        31     9      180.000000       14.938911         2
        22        13         5        31     9        0.000000        0.256433         3
        22        13         5        31     9      180.000000        0.230067         4
        22        13        14        29     9        0.000000        0.256909         1
        22        13        14        29     9      180.000000       16.033530         2
        22        13        14        29     9        0.000000        0.305426         3
        22        13        14        29     9      180.000000        0.139760         4
        23        18         7        25     9        0.000000       -1.967447         1
        23        18         7        25     9      180.000000       11.098422         2
        23        18         7        25     9        0.000000       -0.472090         3
        23        18         7        25     9      180.000000       -0.268138         4
        23        18         7        26     9        0.000000        0.088312         1
        23        18         7        26     9      180.000000        7.430866         2
        23        18         7        26     9        0.000000        0.168995         3
        23        18         7        26     9      180.000000        0.034762         4
        23        18        12        32     9        0.000000        0.134521         1
        23        18        12        32     9      180.000000       19.758674         2
        23        18        12        32     9        0.000000        0.166604         3
        23        18        12        32     9      180.000000       -0.198736         4
        23        19        15        30     9        0.000000        0.172923         1
        23        19        15        30     9      180.000000       14.279827         2
        23        19        15        30     9        0.000000        0.166674         3
        23        19        15        30     9      180.000000        0.327321         4
        24         9        28        45     9        0.000000       -0.519507         1
        24         9        28        45     9      180.000000       10.556824         2
        24         9        28        45     9        0.000000       -0.449026         3
        24         9        28        45     9      180.000000       -0.622276         4
        26        20        46        47     9        0.000000        0.017943         1
        26        20        46        47     9      180.000000       -0.116268         2
        26        20        46        47     9        0.000000        0.405832         3
        26        20        46        47     9      180.000000        0.084962         4
        26        20        46        48     9        0.000000        0.017943         1
        26        20        46        48     9      180.000000       -0.116268         2
        26        20        46        48     9        0.000000        0.405832         3
        26        20        46        48     9      180.000000        0.084962         4
        26        20        46        49     9        0.000000       -1.542317         1
        26        20        46        49     9      180.000000        0.353331         2
        26        20        46        49     9        0.000000        0.174592         3
        26        20        46        49     9      180.000000        0.108745         4
        27         9        28        45     9        0.000000        0.718074         1
        27         9        28        45     9      180.000000       10.627488         2
        27         9        28        45     9        0.000000       -0.494479         3
        27         9        28        45     9      180.000000       -0.498172         4
        28        10         1        34     9        0.000000        0.103752         1
        28        10         1        34     9      180.000000        0.093489         2
        28        10         1        34     9        0.000000        0.307978         3
        28        10         1        34     9      180.000000       -0.046607         4
        28        10         1        35     9        0.000000        0.103752         1
        28        10         1        35     9      180.000000        0.093489         2
        28        10         1        35     9        0.000000        0.307978         3
        28        10         1        35     9      180.000000       -0.046607         4
        28        10         4        40     9        0.000000        0.103752         1
        28        10         4        40     9      180.000000        0.093489         2
        28        10         4        40     9        0.000000        0.307978         3
        28        10         4        40     9      180.000000       -0.046607         4
        28        10         4        41     9        0.000000        0.103752         1
        28        10         4        41     9      180.000000        0.093489         2
        28        10         4        41     9        0.000000        0.307978         3
        28        10         4        41     9      180.000000       -0.046607         4
        29        14        15        30     9        0.000000       -0.156577         1
        29        14        15        30     9      180.000000       11.949670         2
        29        14        15        30     9        0.000000       -0.717198         3
        29        14        15        30     9      180.000000        0.181692         4
        34         1         2        36     9        0.000000       -0.014072         1
        34         1         2        36     9      180.000000       -0.013164         2
        34         1         2        36     9        0.000000        0.310609         3
        34         1         2        36     9      180.000000        0.009990         4
        34         1         2        37     9        0.000000       -0.014072         1
        34         1         2        37     9      180.000000       -0.013164         2
        34         1         2        37     9        0.000000        0.310609         3
        34         1         2        37     9      180.000000        0.009990         4
        34         1        10        42     9        0.000000       -0.005225         1
        34         1        10        42     9      180.000000        0.012815         2
        34         1        10        42     9        0.000000        0.279744         3
        34         1        10        42     9      180.000000        0.088945         4
        35         1         2        36     9        0.000000       -0.014072         1
        35         1         2        36     9      180.000000       -0.013164         2
        35         1         2        36     9        0.000000        0.310609         3
        35         1         2        36     9      180.000000        0.009990         4
        35         1         2        37     9        0.000000       -0.014072         1
        35         1         2        37     9      180.000000       -0.013164         2
        35         1         2        37     9        0.000000        0.310609         3
        35         1         2        37     9      180.000000        0.009990         4
        35         1        10        42     9        0.000000       -0.005225         1
        35         1        10        42     9      180.000000        0.012815         2
        35         1        10        42     9        0.000000        0.279744         3
        35         1        10        42     9      180.000000        0.088945         4
        38         3         4        40     9        0.000000       -0.014072         1
        38         3         4        40     9      180.000000       -0.013164         2
        38         3         4        40     9        0.000000        0.310609         3
        38         3         4        40     9      180.000000        0.009990         4
        38         3         4        41     9        0.000000       -0.014072         1
        38         3         4        41     9      180.000000       -0.013164         2
        38         3         4        41     9        0.000000        0.310609         3
        38         3         4        41     9      180.000000        0.009990         4
        39         3         4        40     9        0.000000       -0.014072         1
        39         3         4        40     9      180.000000       -0.013164         2
        39         3         4        40     9        0.000000        0.310609         3
        39         3         4        40     9      180.000000        0.009990         4
        39         3         4        41     9        0.000000       -0.014072         1
        39         3         4        41     9      180.000000       -0.013164         2
        39         3         4        41     9        0.000000        0.310609         3
        39         3         4        41     9      180.000000        0.009990         4
        40         4        10        42     9        0.000000       -0.005225         1
        40         4        10        42     9      180.000000        0.012815         2
        40         4        10        42     9        0.000000        0.279744         3
        40         4        10        42     9      180.000000        0.088945         4
        41         4        10        42     9        0.000000       -0.005225         1
        41         4        10        42     9      180.000000        0.012815         2
        41         4        10        42     9        0.000000        0.279744         3
        41         4        10        42     9      180.000000        0.088945         4
        42        10        28        45     9        0.000000       -0.695821         1
        42        10        28        45     9      180.000000       -0.162734         2
        42        10        28        45     9        0.000000        0.223777         3
        42        10        28        45     9      180.000000        0.050708         4
        43        20        46        47     9        0.000000       -0.007610         1
        43        20        46        47     9      180.000000        0.089843         2
        43        20        46        47     9        0.000000        0.621710         3
        43        20        46        47     9      180.000000        0.006221         4
        43        20        46        48     9        0.000000       -0.007610         1
        43        20        46        48     9      180.000000        0.089843         2
        43        20        46        48     9        0.000000        0.621710         3
        43        20        46        48     9      180.000000        0.006221         4
        43        20        46        49     9        0.000000       -0.048595         1
        43        20        46        49     9      180.000000       -0.070280         2
        43        20        46        49     9        0.000000        0.495100         3
        43        20        46        49     9      180.000000        0.064477         4
        44        20        46        47     9        0.000000       -0.007610         1
        44        20        46        47     9      180.000000        0.089843         2
        44        20        46        47     9        0.000000        0.621710         3
        44        20        46        47     9      180.000000        0.006221         4
        44        20        46        48     9        0.000000       -0.007610         1
        44        20        46        48     9      180.000000        0.089843         2
        44        20        46        48     9        0.000000        0.621710         3
        44        20        46        48     9      180.000000        0.006221         4
        44        20        46        49     9        0.000000       -0.048595         1
        44        20        46        49     9      180.000000       -0.070280         2
        44        20        46        49     9        0.000000        0.495100         3
        44        20        46        49     9      180.000000        0.064477         4
        46        49        52        53     9        0.000000       -0.097757         1
        46        49        52        53     9      180.000000        0.624921         2
        46        49        52        53     9        0.000000        0.377671         3
        46        49        52        53     9      180.000000        0.019346         4
        46        49        52        54     9        0.000000       -0.097757         1
        46        49        52        54     9      180.000000        0.624921         2
        46        49        52        54     9        0.000000        0.377671         3
        46        49        52        54     9      180.000000        0.019346         4
        46        49        52        55     9        0.000000        0.611032         1
        46        49        52        55     9      180.000000       -0.398547         2
        46        49        52        55     9        0.000000        0.327666         3
        46        49        52        55     9      180.000000       -0.042775         4
        47        46        49        50     9        0.000000       -0.096329         1
        47        46        49        50     9      180.000000        0.110329         2
        47        46        49        50     9        0.000000        0.593394         3
        47        46        49        50     9      180.000000        0.012467         4
        47        46        49        51     9        0.000000       -0.096329         1
        47        46        49        51     9      180.000000        0.110329         2
        47        46        49        51     9        0.000000        0.593394         3
        47        46        49        51     9      180.000000        0.012467         4
        47        46        49        52     9        0.000000        0.541091         1
        47        46        49        52     9      180.000000        0.013476         2
        47        46        49        52     9        0.000000        0.195357         3
        47        46        49        52     9      180.000000        0.008405         4
        48        46        49        50     9        0.000000       -0.096329         1
        48        46        49        50     9      180.000000        0.110329         2
        48        46        49        50     9        0.000000        0.593394         3
        48        46        49        50     9      180.000000        0.012467         4
        48        46        49        51     9        0.000000       -0.096329         1
        48        46        49        51     9      180.000000        0.110329         2
        48        46        49        51     9        0.000000        0.593394         3
        48        46        49        51     9      180.000000        0.012467         4
        48        46        49        52     9        0.000000        0.541091         1
        48        46        49        52     9      180.000000        0.013476         2
        48        46        49        52     9        0.000000        0.195357         3
        48        46        49        52     9      180.000000        0.008405         4
        49        52        55        56     9        0.000000        0.029549         1
        49        52        55        56     9      180.000000        0.050937         2
        49        52        55        56     9        0.000000        0.194508         3
        49        52        55        56     9      180.000000       -0.034180         4
        49        52        55        57     9        0.000000        0.029549         1
        49        52        55        57     9      180.000000        0.050937         2
        49        52        55        57     9        0.000000        0.194508         3
        49        52        55        57     9      180.000000       -0.034180         4
        49        52        55        58     9        0.000000        0.029549         1
        49        52        55        58     9      180.000000        0.050937         2
        49        52        55        58     9        0.000000        0.194508         3
        49        52        55        58     9      180.000000       -0.034180         4
        50        49        52        53     9        0.000000        0.041710         1
        50        49        52        53     9      180.000000       -0.032429         2
        50        49        52        53     9        0.000000        0.411771         3
        50        49        52        53     9      180.000000        0.020019         4
        50        49        52        54     9        0.000000        0.041710         1
        50        49        52        54     9      180.000000       -0.032429         2
        50        49        52        54     9        0.000000        0.411771         3
        50        49        52        54     9      180.000000        0.020019         4
        50        49        52        55     9        0.000000       -0.089259         1
        50        49        52        55     9      180.000000        0.213278         2
        50        49        52        55     9        0.000000        0.331084         3
        50        49        52        55     9      180.000000       -0.004065         4
        51        49        52        53     9        0.000000        0.041710         1
        51        49        52        53     9      180.000000       -0.032429         2
        51        49        52        53     9        0.000000        0.411771         3
        51        49        52        53     9      180.000000        0.020019         4
        51        49        52        54     9        0.000000        0.041710         1
        51        49        52        54     9      180.000000       -0.032429         2
        51        49        52        54     9        0.000000        0.411771         3
        51        49        52        54     9      180.000000        0.020019         4
        51        49        52        55     9        0.000000       -0.089259         1
        51        49        52        55     9      180.000000        0.213278         2
        51        49        52        55     9        0.000000        0.331084         3
        51        49        52        55     9      180.000000       -0.004065         4
        53        52        55        56     9        0.000000        0.044838         1
        53        52        55        56     9      180.000000       -0.022184         2
        53        52        55        56     9        0.000000        0.328264         3
        53        52        55        56     9      180.000000       -0.001372         4
        53        52        55        57     9        0.000000        0.044838         1
        53        52        55        57     9      180.000000       -0.022184         2
        53        52        55        57     9        0.000000        0.328264         3
        53        52        55        57     9      180.000000       -0.001372         4
        53        52        55        58     9        0.000000        0.044838         1
        53        52        55        58     9      180.000000       -0.022184         2
        53        52        55        58     9        0.000000        0.328264         3
        53        52        55        58     9      180.000000       -0.001372         4
        54        52        55        56     9        0.000000        0.044838         1
        54        52        55        56     9      180.000000       -0.022184         2
        54        52        55        56     9        0.000000        0.328264         3
        54        52        55        56     9      180.000000       -0.001372         4
        54        52        55        57     9        0.000000        0.044838         1
        54        52        55        57     9      180.000000       -0.022184         2
        54        52        55        57     9        0.000000        0.328264         3
        54        52        55        57     9      180.000000       -0.001372         4
        54        52        55        58     9        0.000000        0.044838         1
        54        52        55        58     9      180.000000       -0.022184         2
        54        52        55        58     9        0.000000        0.328264         3
        54        52        55        58     9      180.000000       -0.001372         4

[ dihedrals ] ; impropers
;       ai        aj        ak        al funct           phase               k        pn
         7        18        25        26     4      180.000000       20.743759         2
         7        25        26        18     4      180.000000       20.743759         2
         7        26        18        25     4      180.000000       20.743759         2
         9        24        27        28     4      180.000000       27.893333         2
         9        27        28        24     4      180.000000       27.893333         2
         9        28        24        27     4      180.000000       27.893333         2
        12        11        18        32     4      180.000000        2.795688         2
        12        18        32        11     4      180.000000        2.795688         2
        12        32        11        18     4      180.000000        2.795688         2
        13         5        14        22     4      180.000000        0.457749         2
        13        14        22         5     4      180.000000        0.457749         2
        13        22         5        14     4      180.000000        0.457749         2
        15        14        19        30     4      180.000000        1.019580         2
        15        19        30        14     4      180.000000        1.019580         2
        15        30        14        19     4      180.000000        1.019580         2
        16        11        26        27     4      180.000000       12.800487         2
        16        26        27        11     4      180.000000       12.800487         2
        16        27        11        26     4      180.000000       12.800487         2
        17        11        24        33     4      180.000000       13.981849         2
        17        24        33        11     4      180.000000       13.981849         2
        17        33        11        24     4      180.000000       13.981849         2

[ pairs ]
;       ai        aj funct
         1         3     1
         1         9     1
         1        40     1
         1        41     1
         1        45     1
         2         4     1
         2        28     1
         2        38     1
         2        39     1
         2        42     1
         3        28     1
         3        36     1
         3        37     1
         3        42     1
         4         9     1
         4        34     1
         4        35     1
         4        45     1
         5        15     1
         5        23     1
         5        29     1
         6        10     1
         6        34     1
         6        35     1
         6        40     1
         6        41     1
         7        11     1
         7        19     1
         7        27     1
         7        32     1
         7        43     1
         7        44     1
         7        46     1
         8        14     1
         8        18     1
         8        22     1
         8        30     1
         9        11     1
         9        26     1
         9        33     1
         9        42     1
        10        24     1
        10        27     1
        10        36     1
        10        37     1
        10        38     1
        10        39     1
        11        20     1
        11        23     1
        12        19     1
        12        24     1
        12        25     1
        12        26     1
        12        27     1
        12        33     1
        13        19     1
        13        21     1
        13        30     1
        14        23     1
        14        31     1
        15        18     1
        15        21     1
        15        22     1
        16        18     1
        16        24     1
        16        25     1
        16        28     1
        16        32     1
        16        33     1
        16        43     1
        16        44     1
        16        46     1
        17        18     1
        17        26     1
        17        27     1
        17        28     1
        17        32     1
        18        20     1
        19        29     1
        19        31     1
        20        25     1
        20        27     1
        20        50     1
        20        51     1
        20        52     1
        21        23     1
        21        31     1
        22        29     1
        22        31     1
        23        25     1
        23        26     1
        23        30     1
        23        32     1
        24        45     1
        26        47     1
        26        48     1
        26        49     1
        27        45     1
        28        34     1
        28        35     1
        28        40     1
        28        41     1
        29        30     1
        34        36     1
        34        37     1
        34        42     1
        35        36     1
        35        37     1
        35        42     1
        38        40     1
        38        41     1
        39        40     1
        39        41     1
        40        42     1
        41        42     1
        42        45     1
        43        47     1
        43        48     1
        43        49     1
        44        47     1
        44        48     1
        44        49     1
        46        53     1
        46        54     1
        46        55     1
        47        50     1
        47        51     1
        47        52     1
        48        50     1
        48        51     1
        48        52     1
        49        56     1
        49        57     1
        49        58     1
        50        53     1
        50        54     1
        50        55     1
        51        53     1
        51        54     1
        51        55     1
        53        56     1
        53        57     1
        53        58     1
        54        56     1
        54        57     1
        54        58     1
