; ITP file created by ByteFF-ML, 2026-02-21 08:21:55.845282

[ atomtypes ]
;name           bonded.type        at.num        mass        charge   ptype           sigma         epsilon
 c0bf                                   6      0.0000       0.00000       A     3.39825e-01     4.50572e-01
 c1bf                                   6      0.0000       0.00000       A     3.39678e-01     4.51033e-01
 c2bf                                   6      0.0000       0.00000       A     3.39678e-01     4.51033e-01
 c3bf                                   6      0.0000       0.00000       A     3.39825e-01     4.50572e-01
 c4bf                                   6      0.0000       0.00000       A     3.31468e-01     4.12718e-01
 o5bf                                   8      0.0000       0.00000       A     3.15644e-01     3.03351e-01
 c6bf                                   6      0.0000       0.00000       A     3.31424e-01     4.13730e-01
 c7bf                                   6      0.0000       0.00000       A     3.31482e-01     4.13404e-01
 c8bf                                   6      0.0000       0.00000       A     3.31542e-01     4.14110e-01
 c9bf                                   6      0.0000       0.00000       A     3.39714e-01     4.52178e-01
 c10bf                                  6      0.0000       0.00000       A     3.31289e-01     4.13393e-01
 c11bf                                  6      0.0000       0.00000       A     3.31646e-01     4.12777e-01
 c12bf                                  6      0.0000       0.00000       A     3.31488e-01     4.13497e-01
 c13bf                                  6      0.0000       0.00000       A     3.31494e-01     4.12507e-01
 c14bf                                  6      0.0000       0.00000       A     3.31504e-01     4.12314e-01
 c15bf                                  6      0.0000       0.00000       A     3.31389e-01     4.14028e-01
 c16bf                                  6      0.0000       0.00000       A     3.31262e-01     4.14236e-01
 c17bf                                  6      0.0000       0.00000       A     3.31256e-01     4.17640e-01
 c18bf                                  6      0.0000       0.00000       A     3.31474e-01     4.12750e-01
 c19bf                                  6      0.0000       0.00000       A     3.40015e-01     4.52135e-01
 f20bf                                  9      0.0000       0.00000       A     3.03295e-01     3.47905e-01
 f21bf                                  9      0.0000       0.00000       A     3.03414e-01     3.47611e-01
 o22bf                                  8      0.0000       0.00000       A     3.16224e-01     3.10258e-01
 n23bf                                  7      0.0000       0.00000       A     3.38488e-01     3.93278e-01
 o24bf                                  8      0.0000       0.00000       A     3.04755e-01     6.09869e-01
 n25bf                                  7      0.0000       0.00000       A     3.18387e-01     6.83697e-01
 n26bf                                  7      0.0000       0.00000       A     3.38476e-01     3.92153e-01
 n27bf                                  7      0.0000       0.00000       A     3.27859e-01     6.48853e-01
 h28bf                                  1      0.0000       0.00000       A     2.62547e-01     6.71514e-02
 h29bf                                  1      0.0000       0.00000       A     2.62373e-01     6.68945e-02
 h30bf                                  1      0.0000       0.00000       A     2.62520e-01     6.71642e-02
 h31bf                                  1      0.0000       0.00000       A     2.62452e-01     6.74148e-02
 h32bf                                  1      0.0000       0.00000       A     2.53572e-01     6.74323e-02
 h33bf                                  1      0.0000       0.00000       A     2.59805e-01     8.76130e-02
 h34bf                                  1      0.0000       0.00000       A     2.59805e-01     8.76130e-02
 h35bf                                  1      0.0000       0.00000       A     2.42083e-01     8.71949e-02
 h36bf                                  1      0.0000       0.00000       A     2.42083e-01     8.71949e-02
 h37bf                                  1      0.0000       0.00000       A     2.42083e-01     8.71949e-02
 h38bf                                  1      0.0000       0.00000       A     2.42083e-01     8.71949e-02
 h39bf                                  1      0.0000       0.00000       A     2.59805e-01     8.76130e-02
 h40bf                                  1      0.0000       0.00000       A     2.59805e-01     8.76130e-02
 h41bf                                  1      0.0000       0.00000       A     2.42326e-01     8.58414e-02
 h42bf                                  1      0.0000       0.00000       A     2.42341e-01     8.89218e-02
 h43bf                                  1      0.0000       0.00000       A     2.42341e-01     8.89218e-02
 h44bf                                  1      0.0000       0.00000       A     1.10329e-01     4.16526e-02
 c45bf                                  6      0.0000       0.00000       A     3.39913e-01     4.50722e-01
 c46bf                                  6      0.0000       0.00000       A     3.39853e-01     4.50937e-01
 h47bf                                  1      0.0000       0.00000       A     2.60054e-01     8.75859e-02
 h48bf                                  1      0.0000       0.00000       A     2.60054e-01     8.75859e-02
 h49bf                                  1      0.0000       0.00000       A     2.60054e-01     8.75859e-02
 c50bf                                  6      0.0000       0.00000       A     3.39853e-01     4.50937e-01
 h51bf                                  1      0.0000       0.00000       A     2.60054e-01     8.75859e-02
 h52bf                                  1      0.0000       0.00000       A     2.60054e-01     8.75859e-02
 h53bf                                  1      0.0000       0.00000       A     2.60054e-01     8.75859e-02
 o54bf                                  8      0.0000       0.00000       A     3.24188e-01     3.87968e-01
 h55bf                                  1      0.0000       0.00000       A     5.37815e-02     2.03754e-02

[ moleculetype ]
;name             nrexcl
 2r                    3

[ atoms ]
;       nr            type      resi   res      atom      cgnr      charge          mass ; qtot
         1            c0bf         1   UNL        c0         1    -0.12568       12.0110 ; qtot   -0.126
         2            c1bf         1   UNL        c1         2     0.15457       12.0110 ; qtot    0.029
         3            c2bf         1   UNL        c2         3     0.15457       12.0110 ; qtot    0.183
         4            c3bf         1   UNL        c3         4    -0.12568       12.0110 ; qtot    0.058
         5            c4bf         1   UNL        c4         5    -0.17396       12.0110 ; qtot   -0.116
         6            o5bf         1   UNL        o5         6    -0.46215       15.9990 ; qtot   -0.578
         7            c6bf         1   UNL        c6         7     0.57109       12.0110 ; qtot   -0.007
         8            c7bf         1   UNL        c7         8     0.17941       12.0110 ; qtot    0.172
         9            c8bf         1   UNL        c8         9     0.41180       12.0110 ; qtot    0.584
        10            c9bf         1   UNL        c9        10     0.24222       12.0110 ; qtot    0.826
        11           c10bf         1   UNL       c10        11    -0.27512       12.0110 ; qtot    0.551
        12           c11bf         1   UNL       c11        12    -0.09418       12.0110 ; qtot    0.457
        13           c12bf         1   UNL       c12        13     0.18085       12.0110 ; qtot    0.638
        14           c13bf         1   UNL       c13        14    -0.14500       12.0110 ; qtot    0.493
        15           c14bf         1   UNL       c14        15    -0.07757       12.0110 ; qtot    0.415
        16           c15bf         1   UNL       c15        16     0.31971       12.0110 ; qtot    0.735
        17           c16bf         1   UNL       c16        17     0.20343       12.0110 ; qtot    0.938
        18           c17bf         1   UNL       c17        18     0.00922       12.0110 ; qtot    0.948
        19           c18bf         1   UNL       c18        19     0.05605       12.0110 ; qtot    1.004
        20           c19bf         1   UNL       c19        20     0.08129       12.0110 ; qtot    1.085
        21           f20bf         1   UNL       f20        21    -0.16069       18.9980 ; qtot    0.924
        22           f21bf         1   UNL       f21        22    -0.17407       18.9980 ; qtot    0.750
        23           o22bf         1   UNL       o22        23    -0.21296       15.9990 ; qtot    0.537
        24           n23bf         1   UNL       n23        24    -0.25003       14.0070 ; qtot    0.287
        25           o24bf         1   UNL       o24        25    -0.53205       15.9990 ; qtot   -0.245
        26           n25bf         1   UNL       n25        26    -0.37085       14.0070 ; qtot   -0.616
        27           n26bf         1   UNL       n26        27    -0.30735       14.0070 ; qtot   -0.923
        28           n27bf         1   UNL       n27        28    -0.90583       14.0070 ; qtot   -1.829
        29           h28bf         1   UNL       h28        29     0.14202        1.0080 ; qtot   -1.687
        30           h29bf         1   UNL       h29        30     0.14072        1.0080 ; qtot   -1.546
        31           h30bf         1   UNL       h30        31     0.15735        1.0080 ; qtot   -1.389
        32           h31bf         1   UNL       h31        32     0.20692        1.0080 ; qtot   -1.182
        33           h32bf         1   UNL       h32        33     0.02850        1.0080 ; qtot   -1.153
        34           h33bf         1   UNL       h33        34     0.05821        1.0080 ; qtot   -1.095
        35           h34bf         1   UNL       h34        35     0.05821        1.0080 ; qtot   -1.037
        36           h35bf         1   UNL       h35        36     0.04708        1.0080 ; qtot   -0.990
        37           h36bf         1   UNL       h36        37     0.04708        1.0080 ; qtot   -0.943
        38           h37bf         1   UNL       h37        38     0.04708        1.0080 ; qtot   -0.896
        39           h38bf         1   UNL       h38        39     0.04708        1.0080 ; qtot   -0.849
        40           h39bf         1   UNL       h39        40     0.05821        1.0080 ; qtot   -0.790
        41           h40bf         1   UNL       h40        41     0.05821        1.0080 ; qtot   -0.732
        42           h41bf         1   UNL       h41        42     0.06788        1.0080 ; qtot   -0.664
        43           h42bf         1   UNL       h42        43     0.07962        1.0080 ; qtot   -0.585
        44           h43bf         1   UNL       h43        44     0.07962        1.0080 ; qtot   -0.505
        45           h44bf         1   UNL       h44        45     0.49590        1.0080 ; qtot   -0.009
        46           c45bf         1   UNL       c45        46     0.16530       12.0110 ; qtot    0.156
        47           c46bf         1   UNL       c46        47    -0.10876       12.0110 ; qtot    0.047
        48           h47bf         1   UNL       h47        48     0.04665        1.0080 ; qtot    0.094
        49           h48bf         1   UNL       h48        49     0.04665        1.0080 ; qtot    0.141
        50           h49bf         1   UNL       h49        50     0.04665        1.0080 ; qtot    0.187
        51           c50bf         1   UNL       c50        51    -0.10876       12.0110 ; qtot    0.078
        52           h51bf         1   UNL       h51        52     0.04665        1.0080 ; qtot    0.125
        53           h52bf         1   UNL       h52        53     0.04665        1.0080 ; qtot    0.172
        54           h53bf         1   UNL       h53        54     0.04665        1.0080 ; qtot    0.218
        55           o54bf         1   UNL       o54        55    -0.66947       15.9990 ; qtot   -0.451
        56           h55bf         1   UNL       h55        56     0.45106        1.0080 ; qtot    0.000

[ bonds ]
;       ai        aj funct               r               k
         1         2     1        0.153597   178293.892139
         1        10     1        0.154056   172093.226611
         1        34     1        0.109441   299169.023926
         1        35     1        0.109441   299169.023926
         2         6     1        0.143005   196789.616040
         2        36     1        0.109640   291280.534229
         2        37     1        0.109640   291280.534229
         3         4     1        0.153597   178293.892139
         3         6     1        0.143005   196789.616040
         3        38     1        0.109640   291280.534229
         3        39     1        0.109640   291280.534229
         4        10     1        0.154056   172093.226611
         4        40     1        0.109441   299169.023926
         4        41     1        0.109441   299169.023926
         5         8     1        0.139038   316524.477588
         5        13     1        0.139274   306854.774512
         5        31     1        0.108387   329224.337451
         7        18     1        0.147572   178311.397827
         7        25     1        0.123262   583052.147070
         7        26     1        0.140952   185227.983447
         8        19     1        0.139881   278838.982227
         8        21     1        0.134995   302917.054395
         9        24     1        0.136147   237289.543457
         9        27     1        0.134734   275192.946973
         9        28     1        0.135795   337345.138232
        10        28     1        0.146342   195657.096313
        10        42     1        0.109339   302297.626270
        11        12     1        0.143033   269131.586377
        11        16     1        0.141872   249706.656445
        11        17     1        0.140344   290082.230908
        12        18     1        0.135656   414143.346924
        12        32     1        0.108546   321757.107910
        13        14     1        0.139128   306394.902246
        13        22     1        0.135607   292150.813379
        14        15     1        0.139766   317517.437012
        14        29     1        0.108444   326597.718066
        15        19     1        0.139462   301245.293066
        15        30     1        0.108442   325811.328320
        16        26     1        0.137906   264420.066309
        16        27     1        0.133431   327198.759473
        17        24     1        0.132440   375596.612549
        17        33     1        0.108989   309515.639160
        18        23     1        0.136899   261401.196924
        19        23     1        0.138211   245996.574121
        20        26     1        0.147462   168908.238330
        20        43     1        0.108901   309283.047168
        20        44     1        0.108901   309283.047168
        20        46     1        0.154894   156617.980933
        28        45     1        0.101197   417437.097754
        46        47     1        0.153200   182051.933154
        46        51     1        0.153200   182051.933154
        46        55     1        0.143983   184623.724365
        47        48     1        0.109345   301986.175684
        47        49     1        0.109345   301986.175684
        47        50     1        0.109345   301986.175684
        51        52     1        0.109345   301986.175684
        51        53     1        0.109345   301986.175684
        51        54     1        0.109345   301986.175684
        55        56     1        0.097199   461947.819727

[ angles ]
;       ai        aj        ak funct           theta             cth
         1         2         6     1      112.057350      650.229837
         1         2        36     1      110.599220      486.660342
         1         2        37     1      110.599220      486.660342
         1        10         4     1      109.670731      539.148838
         1        10        28     1      111.413162      594.575027
         1        10        42     1      108.438194      470.541861
         2         1        10     1      110.143417      679.501302
         2         1        34     1      109.782654      502.446362
         2         1        35     1      109.782654      502.446362
         2         6         3     1      112.347824      593.219262
         3         4        10     1      110.143417      679.501302
         3         4        40     1      109.782654      502.446362
         3         4        41     1      109.782654      502.446362
         4         3         6     1      112.057350      650.229837
         4         3        38     1      110.599220      486.660342
         4         3        39     1      110.599220      486.660342
         4        10        28     1      111.413162      594.575027
         4        10        42     1      108.438194      470.541861
         5         8        19     1      121.913330      589.890372
         5         8        21     1      119.021118      546.594501
         5        13        14     1      122.381203      586.088790
         5        13        22     1      118.423096      577.916724
         6         2        36     1      107.737404      465.042190
         6         2        37     1      107.737404      465.042190
         6         3        38     1      107.737404      465.042190
         6         3        39     1      107.737404      465.042190
         7        18        12     1      121.983383      722.798002
         7        18        23     1      116.060379      323.675136
         7        26        16     1      122.781212      621.479393
         7        26        20     1      117.129074      615.807474
         8         5        13     1      117.606956      745.241738
         8         5        31     1      120.750504      415.603623
         8        19        15     1      118.750526      612.866939
         8        19        23     1      120.038025      362.403759
         9        24        17     1      115.954872      932.625577
         9        27        16     1      116.591995      759.478868
         9        28        10     1      124.733902      450.652411
         9        28        45     1      114.010254      481.843565
        10         1        34     1      109.667801      496.043027
        10         1        35     1      109.667801      496.043027
        10         4        40     1      109.667801      496.043027
        10         4        41     1      109.667801      496.043027
        10        28        45     1      118.351364      413.441906
        11        12        18     1      119.910011      513.439736
        11        12        32     1      120.050766      408.504945
        11        16        26     1      119.543922      590.493176
        11        16        27     1      122.164322      729.716771
        11        17        24     1      123.631920      736.077299
        11        17        33     1      119.652893      404.332021
        12        11        16     1      119.921432      695.152294
        12        11        17     1      124.944153      443.965615
        12        18        23     1      121.705467      450.043351
        13         5        31     1      121.558578      415.206138
        13        14        15     1      118.578598      692.396968
        13        14        29     1      119.971153      420.856319
        14        13        22     1      119.175308      576.491115
        14        15        19     1      120.569313      694.362878
        14        15        30     1      120.676376      412.191418
        15        14        29     1      121.452782      418.521557
        15        19        23     1      120.941628      501.739750
        16        11        17     1      115.176292      853.702502
        16        26        20     1      119.965736      517.882363
        18         7        25     1      122.620483      320.215688
        18         7        26     1      115.789139      677.205835
        18        12        32     1      120.089622      428.654618
        18        23        19     1      118.732285      413.925675
        19         8        21     1      119.050255      408.388879
        19        15        30     1      118.790672      407.974539
        20        46        47     1      110.394981      560.267198
        20        46        51     1      110.394981      560.267198
        20        46        55     1      107.805626      565.175494
        24         9        27     1      126.172409      634.401745
        24         9        28     1      116.854393      599.021804
        24        17        33     1      116.349670      436.996283
        25         7        26     1      121.171288      601.968276
        26        16        27     1      118.112938      555.037964
        26        20        43     1      107.153664      522.129248
        26        20        44     1      107.153671      522.129280
        26        20        46     1      114.288307      473.738597
        27         9        28     1      116.398056      532.239262
        28        10        42     1      106.415306      519.306983
        34         1        35     1      107.383133      356.326501
        36         2        37     1      107.873230      341.256574
        38         3        39     1      107.873230      341.256574
        40         4        41     1      107.383133      356.326501
        43        20        44     1      109.092636      342.643144
        43        20        46     1      109.207504      433.683034
        44        20        46     1      109.207504      433.683034
        46        47        48     1      110.562973      474.101128
        46        47        49     1      110.562973      474.101128
        46        47        50     1      110.562973      474.101128
        46        51        52     1      110.562973      474.101128
        46        51        53     1      110.562973      474.101128
        46        51        54     1      110.562973      474.101128
        46        55        56     1      107.970444      573.810548
        47        46        51     1      110.858986      614.408423
        47        46        55     1      108.582253      668.169401
        48        47        49     1      108.383408      359.231348
        48        47        50     1      108.383408      359.231348
        49        47        50     1      108.383408      359.231348
        51        46        55     1      108.582253      668.169401
        52        51        53     1      108.383408      359.231348
        52        51        54     1      108.383408      359.231348
        53        51        54     1      108.383408      359.231348

[ dihedrals ] ; propers for gromacs 4.5 or higher, use funct 9
;       ai        aj        ak        al funct           phase               k        pn
         1         2         6         3     9        0.000000        0.656407         1
         1         2         6         3     9      180.000000       -0.958141         2
         1         2         6         3     9        0.000000        0.587773         3
         1         2         6         3     9      180.000000        0.053351         4
         1        10         4         3     9        0.000000        2.989875         1
         1        10         4         3     9      180.000000       -3.284302         2
         1        10         4         3     9        0.000000        0.008029         3
         1        10         4         3     9      180.000000        0.128316         4
         1        10         4        40     9        0.000000       -0.034793         1
         1        10         4        40     9      180.000000        0.064745         2
         1        10         4        40     9        0.000000        0.298913         3
         1        10         4        40     9      180.000000        0.014470         4
         1        10         4        41     9        0.000000       -0.034793         1
         1        10         4        41     9      180.000000        0.064745         2
         1        10         4        41     9        0.000000        0.298913         3
         1        10         4        41     9      180.000000        0.014470         4
         1        10        28         9     9        0.000000       -0.203113         1
         1        10        28         9     9      180.000000       -0.228725         2
         1        10        28         9     9        0.000000        0.538014         3
         1        10        28         9     9      180.000000        0.024242         4
         1        10        28        45     9        0.000000       -0.211311         1
         1        10        28        45     9      180.000000        0.210201         2
         1        10        28        45     9        0.000000        0.038851         3
         1        10        28        45     9      180.000000       -0.020037         4
         2         1        10         4     9        0.000000        2.989875         1
         2         1        10         4     9      180.000000       -3.284302         2
         2         1        10         4     9        0.000000        0.008029         3
         2         1        10         4     9      180.000000        0.128316         4
         2         1        10        28     9        0.000000       -1.913323         1
         2         1        10        28     9      180.000000       -1.584994         2
         2         1        10        28     9        0.000000        0.106704         3
         2         1        10        28     9      180.000000        0.296263         4
         2         1        10        42     9        0.000000       -0.000719         1
         2         1        10        42     9      180.000000       -0.002826         2
         2         1        10        42     9        0.000000        0.168043         3
         2         1        10        42     9      180.000000        0.040671         4
         2         6         3         4     9        0.000000        0.656407         1
         2         6         3         4     9      180.000000       -0.958141         2
         2         6         3         4     9        0.000000        0.587773         3
         2         6         3         4     9      180.000000        0.053351         4
         2         6         3        38     9        0.000000       -0.046698         1
         2         6         3        38     9      180.000000        0.044371         2
         2         6         3        38     9        0.000000        0.473257         3
         2         6         3        38     9      180.000000       -0.000534         4
         2         6         3        39     9        0.000000       -0.046698         1
         2         6         3        39     9      180.000000        0.044371         2
         2         6         3        39     9        0.000000        0.473257         3
         2         6         3        39     9      180.000000       -0.000534         4
         3         4        10        28     9        0.000000       -1.913323         1
         3         4        10        28     9      180.000000       -1.584994         2
         3         4        10        28     9        0.000000        0.106704         3
         3         4        10        28     9      180.000000        0.296263         4
         3         4        10        42     9        0.000000       -0.000719         1
         3         4        10        42     9      180.000000       -0.002826         2
         3         4        10        42     9        0.000000        0.168043         3
         3         4        10        42     9      180.000000        0.040671         4
         3         6         2        36     9        0.000000       -0.046698         1
         3         6         2        36     9      180.000000        0.044371         2
         3         6         2        36     9        0.000000        0.473257         3
         3         6         2        36     9      180.000000       -0.000534         4
         3         6         2        37     9        0.000000       -0.046698         1
         3         6         2        37     9      180.000000        0.044371         2
         3         6         2        37     9        0.000000        0.473257         3
         3         6         2        37     9      180.000000       -0.000534         4
         4        10         1        34     9        0.000000       -0.034793         1
         4        10         1        34     9      180.000000        0.064745         2
         4        10         1        34     9        0.000000        0.298913         3
         4        10         1        34     9      180.000000        0.014470         4
         4        10         1        35     9        0.000000       -0.034793         1
         4        10         1        35     9      180.000000        0.064745         2
         4        10         1        35     9        0.000000        0.298913         3
         4        10         1        35     9      180.000000        0.014470         4
         4        10        28         9     9        0.000000       -0.203113         1
         4        10        28         9     9      180.000000       -0.228725         2
         4        10        28         9     9        0.000000        0.538014         3
         4        10        28         9     9      180.000000        0.024242         4
         4        10        28        45     9        0.000000       -0.211311         1
         4        10        28        45     9      180.000000        0.210201         2
         4        10        28        45     9        0.000000        0.038851         3
         4        10        28        45     9      180.000000       -0.020037         4
         5         8        19        15     9        0.000000       -0.033769         1
         5         8        19        15     9      180.000000       15.070050         2
         5         8        19        15     9        0.000000       -0.822733         3
         5         8        19        15     9      180.000000       -0.166007         4
         5         8        19        23     9        0.000000        0.213515         1
         5         8        19        23     9      180.000000       15.796953         2
         5         8        19        23     9        0.000000        0.046168         3
         5         8        19        23     9      180.000000       -0.230207         4
         5        13        14        15     9        0.000000       -0.084562         1
         5        13        14        15     9      180.000000       17.436868         2
         5        13        14        15     9        0.000000       -1.215052         3
         5        13        14        15     9      180.000000       -0.350359         4
         5        13        14        29     9        0.000000        0.222596         1
         5        13        14        29     9      180.000000       12.990701         2
         5        13        14        29     9        0.000000       -0.533192         3
         5        13        14        29     9      180.000000        0.123340         4
         6         2         1        10     9        0.000000        0.588019         1
         6         2         1        10     9      180.000000       -1.553809         2
         6         2         1        10     9        0.000000        0.318518         3
         6         2         1        10     9      180.000000        0.071837         4
         6         2         1        34     9        0.000000       -0.070257         1
         6         2         1        34     9      180.000000        0.057420         2
         6         2         1        34     9        0.000000        0.194875         3
         6         2         1        34     9      180.000000       -0.007724         4
         6         2         1        35     9        0.000000       -0.070257         1
         6         2         1        35     9      180.000000        0.057420         2
         6         2         1        35     9        0.000000        0.194875         3
         6         2         1        35     9      180.000000       -0.007724         4
         6         3         4        10     9        0.000000        0.588019         1
         6         3         4        10     9      180.000000       -1.553809         2
         6         3         4        10     9        0.000000        0.318518         3
         6         3         4        10     9      180.000000        0.071837         4
         6         3         4        40     9        0.000000       -0.070257         1
         6         3         4        40     9      180.000000        0.057420         2
         6         3         4        40     9        0.000000        0.194875         3
         6         3         4        40     9      180.000000       -0.007724         4
         6         3         4        41     9        0.000000       -0.070257         1
         6         3         4        41     9      180.000000        0.057420         2
         6         3         4        41     9        0.000000        0.194875         3
         6         3         4        41     9      180.000000       -0.007724         4
         7        18        12        11     9        0.000000       -0.303643         1
         7        18        12        11     9      180.000000       19.747771         2
         7        18        12        11     9        0.000000       -0.838970         3
         7        18        12        11     9      180.000000       -0.804468         4
         7        18        12        32     9        0.000000       -0.005220         1
         7        18        12        32     9      180.000000       15.004300         2
         7        18        12        32     9        0.000000       -0.153299         3
         7        18        12        32     9      180.000000        0.070823         4
         7        18        23        19     9        0.000000        1.332267         1
         7        18        23        19     9      180.000000        3.429890         2
         7        18        23        19     9        0.000000        1.477156         3
         7        18        23        19     9      180.000000       -0.328021         4
         7        26        16        11     9        0.000000       -1.705955         1
         7        26        16        11     9      180.000000        5.803638         2
         7        26        16        11     9        0.000000       -0.789417         3
         7        26        16        11     9      180.000000        0.326040         4
         7        26        16        27     9        0.000000        0.593898         1
         7        26        16        27     9      180.000000        7.823388         2
         7        26        16        27     9        0.000000        0.236470         3
         7        26        16        27     9      180.000000       -0.188753         4
         7        26        20        43     9        0.000000        0.194445         1
         7        26        20        43     9      180.000000        0.521365         2
         7        26        20        43     9        0.000000       -0.311002         3
         7        26        20        43     9      180.000000        0.361993         4
         7        26        20        44     9        0.000000        0.194445         1
         7        26        20        44     9      180.000000        0.521365         2
         7        26        20        44     9        0.000000       -0.311002         3
         7        26        20        44     9      180.000000        0.361993         4
         7        26        20        46     9        0.000000        0.966194         1
         7        26        20        46     9      180.000000       -1.294647         2
         7        26        20        46     9        0.000000       -0.046028         3
         7        26        20        46     9      180.000000        0.299983         4
         8         5        13        14     9        0.000000       -0.101773         1
         8         5        13        14     9      180.000000       17.261374         2
         8         5        13        14     9        0.000000       -1.245547         3
         8         5        13        14     9      180.000000       -0.369105         4
         8         5        13        22     9        0.000000        0.202544         1
         8         5        13        22     9      180.000000       22.811181         2
         8         5        13        22     9        0.000000        0.550755         3
         8         5        13        22     9      180.000000       -0.701551         4
         8        19        15        14     9        0.000000       -0.019541         1
         8        19        15        14     9      180.000000       17.479613         2
         8        19        15        14     9        0.000000       -1.174083         3
         8        19        15        14     9      180.000000       -0.342804         4
         8        19        15        30     9        0.000000        0.103760         1
         8        19        15        30     9      180.000000       12.825624         2
         8        19        15        30     9        0.000000       -0.551225         3
         8        19        15        30     9      180.000000        0.193193         4
         8        19        23        18     9        0.000000        0.392896         1
         8        19        23        18     9      180.000000        2.044104         2
         8        19        23        18     9        0.000000        0.320334         3
         8        19        23        18     9      180.000000       -0.085037         4
         9        24        17        11     9        0.000000       -0.351880         1
         9        24        17        11     9      180.000000       20.901905         2
         9        24        17        11     9        0.000000       -1.476279         3
         9        24        17        11     9      180.000000       -0.227830         4
         9        24        17        33     9        0.000000        0.357883         1
         9        24        17        33     9      180.000000       19.018619         2
         9        24        17        33     9        0.000000       -0.094002         3
         9        24        17        33     9      180.000000       -0.241065         4
         9        27        16        11     9        0.000000       -0.407321         1
         9        27        16        11     9      180.000000       13.111372         2
         9        27        16        11     9        0.000000       -0.649397         3
         9        27        16        11     9      180.000000       -0.092941         4
         9        27        16        26     9        0.000000       -0.298760         1
         9        27        16        26     9      180.000000       16.603365         2
         9        27        16        26     9        0.000000        0.514914         3
         9        27        16        26     9      180.000000       -0.517514         4
         9        28        10        42     9        0.000000       -0.159174         1
         9        28        10        42     9      180.000000        0.215923         2
         9        28        10        42     9        0.000000        0.641603         3
         9        28        10        42     9      180.000000        0.037921         4
        10         1         2        36     9        0.000000       -0.016397         1
        10         1         2        36     9      180.000000        0.056039         2
        10         1         2        36     9        0.000000        0.282909         3
        10         1         2        36     9      180.000000        0.009404         4
        10         1         2        37     9        0.000000       -0.016397         1
        10         1         2        37     9      180.000000        0.056039         2
        10         1         2        37     9        0.000000        0.282909         3
        10         1         2        37     9      180.000000        0.009404         4
        10         4         3        38     9        0.000000       -0.016397         1
        10         4         3        38     9      180.000000        0.056039         2
        10         4         3        38     9        0.000000        0.282909         3
        10         4         3        38     9      180.000000        0.009404         4
        10         4         3        39     9        0.000000       -0.016397         1
        10         4         3        39     9      180.000000        0.056039         2
        10         4         3        39     9        0.000000        0.282909         3
        10         4         3        39     9      180.000000        0.009404         4
        10        28         9        24     9        0.000000        0.387695         1
        10        28         9        24     9      180.000000        7.925193         2
        10        28         9        24     9        0.000000        0.630611         3
        10        28         9        24     9      180.000000       -0.895939         4
        10        28         9        27     9        0.000000       -0.031310         1
        10        28         9        27     9      180.000000        8.520450         2
        10        28         9        27     9        0.000000        0.339469         3
        10        28         9        27     9      180.000000       -0.740009         4
        11        12        18        23     9        0.000000       -0.497941         1
        11        12        18        23     9      180.000000       27.317802         2
        11        12        18        23     9        0.000000       -0.103955         3
        11        12        18        23     9      180.000000       -1.525768         4
        11        16        26        20     9        0.000000        0.209593         1
        11        16        26        20     9      180.000000        8.368755         2
        11        16        26        20     9        0.000000        0.049775         3
        11        16        26        20     9      180.000000       -0.101540         4
        12        11        16        26     9        0.000000        0.228591         1
        12        11        16        26     9      180.000000       13.891674         2
        12        11        16        26     9        0.000000       -0.243239         3
        12        11        16        26     9      180.000000       -0.556937         4
        12        11        16        27     9        0.000000        0.149328         1
        12        11        16        27     9      180.000000       12.748609         2
        12        11        16        27     9        0.000000        0.074761         3
        12        11        16        27     9      180.000000       -0.384709         4
        12        11        17        24     9        0.000000        0.052547         1
        12        11        17        24     9      180.000000       14.157587         2
        12        11        17        24     9        0.000000        0.079093         3
        12        11        17        24     9      180.000000       -0.519868         4
        12        11        17        33     9        0.000000        0.123540         1
        12        11        17        33     9      180.000000       12.165825         2
        12        11        17        33     9        0.000000        0.210553         3
        12        11        17        33     9      180.000000       -0.122556         4
        12        18         7        25     9        0.000000        0.487659         1
        12        18         7        25     9      180.000000        5.854525         2
        12        18         7        25     9        0.000000       -0.021958         3
        12        18         7        25     9      180.000000       -0.412363         4
        12        18         7        26     9        0.000000        1.951663         1
        12        18         7        26     9      180.000000        1.670647         2
        12        18         7        26     9        0.000000        0.134012         3
        12        18         7        26     9      180.000000        0.140773         4
        12        18        23        19     9        0.000000       -0.347315         1
        12        18        23        19     9      180.000000        4.738828         2
        12        18        23        19     9        0.000000       -1.550340         3
        12        18        23        19     9      180.000000        0.143112         4
        13         5         8        19     9        0.000000       -0.159544         1
        13         5         8        19     9      180.000000       17.441704         2
        13         5         8        19     9        0.000000       -1.253452         3
        13         5         8        19     9      180.000000       -0.342164         4
        13         5         8        21     9        0.000000        0.535263         1
        13         5         8        21     9      180.000000       22.924715         2
        13         5         8        21     9        0.000000        0.562820         3
        13         5         8        21     9      180.000000       -0.548398         4
        13        14        15        19     9        0.000000       -0.193831         1
        13        14        15        19     9      180.000000       18.718306         2
        13        14        15        19     9        0.000000       -1.470902         3
        13        14        15        19     9      180.000000       -0.444338         4
        13        14        15        30     9        0.000000        0.152983         1
        13        14        15        30     9      180.000000       14.549564         2
        13        14        15        30     9        0.000000       -0.624238         3
        13        14        15        30     9      180.000000        0.081753         4
        14        13         5        31     9        0.000000        0.181711         1
        14        13         5        31     9      180.000000       12.249439         2
        14        13         5        31     9        0.000000       -0.437418         3
        14        13         5        31     9      180.000000        0.175565         4
        14        15        19        23     9        0.000000        0.435183         1
        14        15        19        23     9      180.000000       18.963855         2
        14        15        19        23     9        0.000000        0.317361         3
        14        15        19        23     9      180.000000       -0.395936         4
        15        14        13        22     9        0.000000        0.505280         1
        15        14        13        22     9      180.000000       23.564142         2
        15        14        13        22     9        0.000000        0.449858         3
        15        14        13        22     9      180.000000       -0.661252         4
        15        19         8        21     9        0.000000        0.586984         1
        15        19         8        21     9      180.000000       18.000233         2
        15        19         8        21     9        0.000000        0.390466         3
        15        19         8        21     9      180.000000       -0.347261         4
        15        19        23        18     9        0.000000       -0.684443         1
        15        19        23        18     9      180.000000        3.417237         2
        15        19        23        18     9        0.000000       -0.700054         3
        15        19        23        18     9      180.000000        0.147253         4
        16        11        12        18     9        0.000000       -0.743768         1
        16        11        12        18     9      180.000000       11.810802         2
        16        11        12        18     9        0.000000       -1.666586         3
        16        11        12        18     9      180.000000       -0.261154         4
        16        11        12        32     9        0.000000        0.174657         1
        16        11        12        32     9      180.000000        8.021084         2
        16        11        12        32     9        0.000000       -0.247414         3
        16        11        12        32     9      180.000000       -0.163888         4
        16        11        17        24     9        0.000000        0.175235         1
        16        11        17        24     9      180.000000       14.407375         2
        16        11        17        24     9        0.000000       -0.246481         3
        16        11        17        24     9      180.000000       -0.386965         4
        16        11        17        33     9        0.000000        0.224118         1
        16        11        17        33     9      180.000000       12.014257         2
        16        11        17        33     9        0.000000       -0.283820         3
        16        11        17        33     9      180.000000       -0.217014         4
        16        26         7        18     9        0.000000       -1.844745         1
        16        26         7        18     9      180.000000        4.592483         2
        16        26         7        18     9        0.000000       -0.039162         3
        16        26         7        18     9      180.000000       -0.056122         4
        16        26         7        25     9        0.000000        0.266468         1
        16        26         7        25     9      180.000000        9.917126         2
        16        26         7        25     9        0.000000       -0.484228         3
        16        26         7        25     9      180.000000       -0.535087         4
        16        26        20        43     9        0.000000       -0.403758         1
        16        26        20        43     9      180.000000        0.539232         2
        16        26        20        43     9        0.000000       -0.164048         3
        16        26        20        43     9      180.000000        0.368393         4
        16        26        20        44     9        0.000000       -0.403758         1
        16        26        20        44     9      180.000000        0.539232         2
        16        26        20        44     9        0.000000       -0.164048         3
        16        26        20        44     9      180.000000        0.368393         4
        16        26        20        46     9        0.000000        0.913202         1
        16        26        20        46     9      180.000000       -2.102713         2
        16        26        20        46     9        0.000000        0.135672         3
        16        26        20        46     9      180.000000        0.374537         4
        16        27         9        24     9        0.000000        0.767597         1
        16        27         9        24     9      180.000000        9.594581         2
        16        27         9        24     9        0.000000        0.523086         3
        16        27         9        24     9      180.000000       -0.391321         4
        16        27         9        28     9        0.000000        1.118317         1
        16        27         9        28     9      180.000000       15.269358         2
        16        27         9        28     9        0.000000        0.222812         3
        16        27         9        28     9      180.000000       -0.979611         4
        17        11        12        18     9        0.000000       -0.660843         1
        17        11        12        18     9      180.000000        8.788017         2
        17        11        12        18     9        0.000000       -0.842360         3
        17        11        12        18     9      180.000000        0.026900         4
        17        11        12        32     9        0.000000       -0.815890         1
        17        11        12        32     9      180.000000        4.929518         2
        17        11        12        32     9        0.000000       -0.368799         3
        17        11        12        32     9      180.000000       -0.065384         4
        17        11        16        26     9        0.000000       -0.512716         1
        17        11        16        26     9      180.000000       12.521513         2
        17        11        16        26     9        0.000000       -0.586572         3
        17        11        16        26     9      180.000000       -0.390843         4
        17        11        16        27     9        0.000000       -0.157861         1
        17        11        16        27     9      180.000000       11.315942         2
        17        11        16        27     9        0.000000        0.017442         3
        17        11        16        27     9      180.000000       -0.291026         4
        17        24         9        27     9        0.000000        0.719657         1
        17        24         9        27     9      180.000000        9.927608         2
        17        24         9        27     9        0.000000        0.789124         3
        17        24         9        27     9      180.000000       -0.541414         4
        17        24         9        28     9        0.000000        1.258938         1
        17        24         9        28     9      180.000000       15.073808         2
        17        24         9        28     9        0.000000        0.447281         3
        17        24         9        28     9      180.000000       -0.788275         4
        18         7        26        20     9        0.000000        1.226624         1
        18         7        26        20     9      180.000000        8.967758         2
        18         7        26        20     9        0.000000        0.269515         3
        18         7        26        20     9      180.000000       -0.143234         4
        19         8         5        31     9        0.000000        0.204291         1
        19         8         5        31     9      180.000000       12.330683         2
        19         8         5        31     9        0.000000       -0.429751         3
        19         8         5        31     9      180.000000        0.180492         4
        19        15        14        29     9        0.000000        0.085472         1
        19        15        14        29     9      180.000000       14.240723         2
        19        15        14        29     9        0.000000       -0.502524         3
        19        15        14        29     9      180.000000        0.093111         4
        20        26         7        25     9        0.000000        0.605083         1
        20        26         7        25     9      180.000000       10.835872         2
        20        26         7        25     9        0.000000       -1.055373         3
        20        26         7        25     9      180.000000        0.180859         4
        20        26        16        27     9        0.000000       -0.827366         1
        20        26        16        27     9      180.000000        9.692770         2
        20        26        16        27     9        0.000000       -0.192888         3
        20        26        16        27     9      180.000000       -0.092926         4
        20        46        47        48     9        0.000000       -0.123770         1
        20        46        47        48     9      180.000000        0.029491         2
        20        46        47        48     9        0.000000        0.453874         3
        20        46        47        48     9      180.000000        0.022800         4
        20        46        47        49     9        0.000000       -0.123770         1
        20        46        47        49     9      180.000000        0.029491         2
        20        46        47        49     9        0.000000        0.453874         3
        20        46        47        49     9      180.000000        0.022800         4
        20        46        47        50     9        0.000000       -0.123770         1
        20        46        47        50     9      180.000000        0.029491         2
        20        46        47        50     9        0.000000        0.453874         3
        20        46        47        50     9      180.000000        0.022800         4
        20        46        51        52     9        0.000000       -0.123770         1
        20        46        51        52     9      180.000000        0.029491         2
        20        46        51        52     9        0.000000        0.453874         3
        20        46        51        52     9      180.000000        0.022800         4
        20        46        51        53     9        0.000000       -0.123770         1
        20        46        51        53     9      180.000000        0.029491         2
        20        46        51        53     9        0.000000        0.453874         3
        20        46        51        53     9      180.000000        0.022800         4
        20        46        51        54     9        0.000000       -0.123770         1
        20        46        51        54     9      180.000000        0.029491         2
        20        46        51        54     9        0.000000        0.453874         3
        20        46        51        54     9      180.000000        0.022800         4
        20        46        55        56     9        0.000000        1.838123         1
        20        46        55        56     9      180.000000       -1.086572         2
        20        46        55        56     9        0.000000        1.231186         3
        20        46        55        56     9      180.000000        0.114044         4
        21         8         5        31     9        0.000000        0.356407         1
        21         8         5        31     9      180.000000       15.755417         2
        21         8         5        31     9        0.000000        0.173168         3
        21         8         5        31     9      180.000000        0.272104         4
        21         8        19        23     9        0.000000       -0.107429         1
        21         8        19        23     9      180.000000       20.900297         2
        21         8        19        23     9        0.000000        0.246361         3
        21         8        19        23     9      180.000000       -0.890880         4
        22        13         5        31     9        0.000000        0.302040         1
        22        13         5        31     9      180.000000       14.938911         2
        22        13         5        31     9        0.000000        0.256433         3
        22        13         5        31     9      180.000000        0.230067         4
        22        13        14        29     9        0.000000        0.256909         1
        22        13        14        29     9      180.000000       16.033530         2
        22        13        14        29     9        0.000000        0.305426         3
        22        13        14        29     9      180.000000        0.139760         4
        23        18         7        25     9        0.000000       -1.958074         1
        23        18         7        25     9      180.000000       11.162500         2
        23        18         7        25     9        0.000000       -0.455106         3
        23        18         7        25     9      180.000000       -0.262369         4
        23        18         7        26     9        0.000000       -0.025820         1
        23        18         7        26     9      180.000000        7.601287         2
        23        18         7        26     9        0.000000        0.174617         3
        23        18         7        26     9      180.000000        0.008938         4
        23        18        12        32     9        0.000000        0.134521         1
        23        18        12        32     9      180.000000       19.758674         2
        23        18        12        32     9        0.000000        0.166604         3
        23        18        12        32     9      180.000000       -0.198736         4
        23        19        15        30     9        0.000000        0.172923         1
        23        19        15        30     9      180.000000       14.279827         2
        23        19        15        30     9        0.000000        0.166673         3
        23        19        15        30     9      180.000000        0.327322         4
        24         9        28        45     9        0.000000       -0.519507         1
        24         9        28        45     9      180.000000       10.556824         2
        24         9        28        45     9        0.000000       -0.449026         3
        24         9        28        45     9      180.000000       -0.622276         4
        26        20        46        47     9        0.000000       -0.057965         1
        26        20        46        47     9      180.000000        1.030611         2
        26        20        46        47     9        0.000000        0.255596         3
        26        20        46        47     9      180.000000        0.017710         4
        26        20        46        51     9        0.000000       -0.057965         1
        26        20        46        51     9      180.000000        1.030611         2
        26        20        46        51     9        0.000000        0.255596         3
        26        20        46        51     9      180.000000        0.017710         4
        26        20        46        55     9        0.000000       -2.052710         1
        26        20        46        55     9      180.000000       -0.360445         2
        26        20        46        55     9        0.000000        0.023599         3
        26        20        46        55     9      180.000000        0.060291         4
        27         9        28        45     9        0.000000        0.718074         1
        27         9        28        45     9      180.000000       10.627488         2
        27         9        28        45     9        0.000000       -0.494479         3
        27         9        28        45     9      180.000000       -0.498172         4
        28        10         1        34     9        0.000000        0.103752         1
        28        10         1        34     9      180.000000        0.093489         2
        28        10         1        34     9        0.000000        0.307978         3
        28        10         1        34     9      180.000000       -0.046607         4
        28        10         1        35     9        0.000000        0.103752         1
        28        10         1        35     9      180.000000        0.093489         2
        28        10         1        35     9        0.000000        0.307978         3
        28        10         1        35     9      180.000000       -0.046607         4
        28        10         4        40     9        0.000000        0.103752         1
        28        10         4        40     9      180.000000        0.093489         2
        28        10         4        40     9        0.000000        0.307978         3
        28        10         4        40     9      180.000000       -0.046607         4
        28        10         4        41     9        0.000000        0.103752         1
        28        10         4        41     9      180.000000        0.093489         2
        28        10         4        41     9        0.000000        0.307978         3
        28        10         4        41     9      180.000000       -0.046607         4
        29        14        15        30     9        0.000000       -0.156577         1
        29        14        15        30     9      180.000000       11.949669         2
        29        14        15        30     9        0.000000       -0.717197         3
        29        14        15        30     9      180.000000        0.181692         4
        34         1         2        36     9        0.000000       -0.014072         1
        34         1         2        36     9      180.000000       -0.013164         2
        34         1         2        36     9        0.000000        0.310609         3
        34         1         2        36     9      180.000000        0.009990         4
        34         1         2        37     9        0.000000       -0.014072         1
        34         1         2        37     9      180.000000       -0.013164         2
        34         1         2        37     9        0.000000        0.310609         3
        34         1         2        37     9      180.000000        0.009990         4
        34         1        10        42     9        0.000000       -0.005225         1
        34         1        10        42     9      180.000000        0.012815         2
        34         1        10        42     9        0.000000        0.279744         3
        34         1        10        42     9      180.000000        0.088945         4
        35         1         2        36     9        0.000000       -0.014072         1
        35         1         2        36     9      180.000000       -0.013164         2
        35         1         2        36     9        0.000000        0.310609         3
        35         1         2        36     9      180.000000        0.009990         4
        35         1         2        37     9        0.000000       -0.014072         1
        35         1         2        37     9      180.000000       -0.013164         2
        35         1         2        37     9        0.000000        0.310609         3
        35         1         2        37     9      180.000000        0.009990         4
        35         1        10        42     9        0.000000       -0.005225         1
        35         1        10        42     9      180.000000        0.012815         2
        35         1        10        42     9        0.000000        0.279744         3
        35         1        10        42     9      180.000000        0.088945         4
        38         3         4        40     9        0.000000       -0.014072         1
        38         3         4        40     9      180.000000       -0.013164         2
        38         3         4        40     9        0.000000        0.310609         3
        38         3         4        40     9      180.000000        0.009990         4
        38         3         4        41     9        0.000000       -0.014072         1
        38         3         4        41     9      180.000000       -0.013164         2
        38         3         4        41     9        0.000000        0.310609         3
        38         3         4        41     9      180.000000        0.009990         4
        39         3         4        40     9        0.000000       -0.014072         1
        39         3         4        40     9      180.000000       -0.013164         2
        39         3         4        40     9        0.000000        0.310609         3
        39         3         4        40     9      180.000000        0.009990         4
        39         3         4        41     9        0.000000       -0.014072         1
        39         3         4        41     9      180.000000       -0.013164         2
        39         3         4        41     9        0.000000        0.310609         3
        39         3         4        41     9      180.000000        0.009990         4
        40         4        10        42     9        0.000000       -0.005225         1
        40         4        10        42     9      180.000000        0.012815         2
        40         4        10        42     9        0.000000        0.279744         3
        40         4        10        42     9      180.000000        0.088945         4
        41         4        10        42     9        0.000000       -0.005225         1
        41         4        10        42     9      180.000000        0.012815         2
        41         4        10        42     9        0.000000        0.279744         3
        41         4        10        42     9      180.000000        0.088945         4
        42        10        28        45     9        0.000000       -0.695821         1
        42        10        28        45     9      180.000000       -0.162734         2
        42        10        28        45     9        0.000000        0.223777         3
        42        10        28        45     9      180.000000        0.050708         4
        43        20        46        47     9        0.000000       -0.084082         1
        43        20        46        47     9      180.000000       -0.060914         2
        43        20        46        47     9        0.000000        0.522123         3
        43        20        46        47     9      180.000000        0.076051         4
        43        20        46        51     9        0.000000       -0.084082         1
        43        20        46        51     9      180.000000       -0.060914         2
        43        20        46        51     9        0.000000        0.522123         3
        43        20        46        51     9      180.000000        0.076051         4
        43        20        46        55     9        0.000000        0.230406         1
        43        20        46        55     9      180.000000       -0.033412         2
        43        20        46        55     9        0.000000        0.385970         3
        43        20        46        55     9      180.000000        0.026629         4
        44        20        46        47     9        0.000000       -0.084082         1
        44        20        46        47     9      180.000000       -0.060914         2
        44        20        46        47     9        0.000000        0.522123         3
        44        20        46        47     9      180.000000        0.076051         4
        44        20        46        51     9        0.000000       -0.084082         1
        44        20        46        51     9      180.000000       -0.060914         2
        44        20        46        51     9        0.000000        0.522123         3
        44        20        46        51     9      180.000000        0.076051         4
        44        20        46        55     9        0.000000        0.230406         1
        44        20        46        55     9      180.000000       -0.033412         2
        44        20        46        55     9        0.000000        0.385970         3
        44        20        46        55     9      180.000000        0.026629         4
        47        46        51        52     9        0.000000       -0.072707         1
        47        46        51        52     9      180.000000       -0.010875         2
        47        46        51        52     9        0.000000        0.520314         3
        47        46        51        52     9      180.000000        0.053424         4
        47        46        51        53     9        0.000000       -0.072707         1
        47        46        51        53     9      180.000000       -0.010875         2
        47        46        51        53     9        0.000000        0.520314         3
        47        46        51        53     9      180.000000        0.053424         4
        47        46        51        54     9        0.000000       -0.072707         1
        47        46        51        54     9      180.000000       -0.010875         2
        47        46        51        54     9        0.000000        0.520314         3
        47        46        51        54     9      180.000000        0.053424         4
        47        46        55        56     9        0.000000       -1.322550         1
        47        46        55        56     9      180.000000        1.270612         2
        47        46        55        56     9        0.000000        0.948617         3
        47        46        55        56     9      180.000000        0.039797         4
        48        47        46        51     9        0.000000       -0.072707         1
        48        47        46        51     9      180.000000       -0.010875         2
        48        47        46        51     9        0.000000        0.520314         3
        48        47        46        51     9      180.000000        0.053424         4
        48        47        46        55     9        0.000000        0.045069         1
        48        47        46        55     9      180.000000        0.007177         2
        48        47        46        55     9        0.000000        0.465256         3
        48        47        46        55     9      180.000000        0.019295         4
        49        47        46        51     9        0.000000       -0.072707         1
        49        47        46        51     9      180.000000       -0.010875         2
        49        47        46        51     9        0.000000        0.520314         3
        49        47        46        51     9      180.000000        0.053424         4
        49        47        46        55     9        0.000000        0.045069         1
        49        47        46        55     9      180.000000        0.007177         2
        49        47        46        55     9        0.000000        0.465256         3
        49        47        46        55     9      180.000000        0.019295         4
        50        47        46        51     9        0.000000       -0.072707         1
        50        47        46        51     9      180.000000       -0.010875         2
        50        47        46        51     9        0.000000        0.520314         3
        50        47        46        51     9      180.000000        0.053424         4
        50        47        46        55     9        0.000000        0.045069         1
        50        47        46        55     9      180.000000        0.007177         2
        50        47        46        55     9        0.000000        0.465256         3
        50        47        46        55     9      180.000000        0.019295         4
        51        46        55        56     9        0.000000       -1.322550         1
        51        46        55        56     9      180.000000        1.270612         2
        51        46        55        56     9        0.000000        0.948617         3
        51        46        55        56     9      180.000000        0.039797         4
        52        51        46        55     9        0.000000        0.045069         1
        52        51        46        55     9      180.000000        0.007177         2
        52        51        46        55     9        0.000000        0.465256         3
        52        51        46        55     9      180.000000        0.019295         4
        53        51        46        55     9        0.000000        0.045069         1
        53        51        46        55     9      180.000000        0.007177         2
        53        51        46        55     9        0.000000        0.465256         3
        53        51        46        55     9      180.000000        0.019295         4
        54        51        46        55     9        0.000000        0.045069         1
        54        51        46        55     9      180.000000        0.007177         2
        54        51        46        55     9        0.000000        0.465256         3
        54        51        46        55     9      180.000000        0.019295         4

[ dihedrals ] ; impropers
;       ai        aj        ak        al funct           phase               k        pn
         7        18        25        26     4      180.000000       18.452966         2
         7        25        26        18     4      180.000000       18.452966         2
         7        26        18        25     4      180.000000       18.452966         2
         9        24        27        28     4      180.000000       27.893333         2
         9        27        28        24     4      180.000000       27.893333         2
         9        28        24        27     4      180.000000       27.893333         2
        12        11        18        32     4      180.000000        2.795688         2
        12        18        32        11     4      180.000000        2.795688         2
        12        32        11        18     4      180.000000        2.795688         2
        13         5        14        22     4      180.000000        0.457749         2
        13        14        22         5     4      180.000000        0.457749         2
        13        22         5        14     4      180.000000        0.457749         2
        15        14        19        30     4      180.000000        1.019580         2
        15        19        30        14     4      180.000000        1.019580         2
        15        30        14        19     4      180.000000        1.019580         2
        16        11        26        27     4      180.000000        9.489982         2
        16        26        27        11     4      180.000000        9.489982         2
        16        27        11        26     4      180.000000        9.489982         2
        17        11        24        33     4      180.000000       13.981849         2
        17        24        33        11     4      180.000000       13.981849         2
        17        33        11        24     4      180.000000       13.981849         2

[ pairs ]
;       ai        aj funct
         1         3     1
         1         9     1
         1        40     1
         1        41     1
         1        45     1
         2         4     1
         2        28     1
         2        38     1
         2        39     1
         2        42     1
         3        28     1
         3        36     1
         3        37     1
         3        42     1
         4         9     1
         4        34     1
         4        35     1
         4        45     1
         5        15     1
         5        23     1
         5        29     1
         6        10     1
         6        34     1
         6        35     1
         6        40     1
         6        41     1
         7        11     1
         7        19     1
         7        27     1
         7        32     1
         7        43     1
         7        44     1
         7        46     1
         8        14     1
         8        18     1
         8        22     1
         8        30     1
         9        11     1
         9        26     1
         9        33     1
         9        42     1
        10        24     1
        10        27     1
        10        36     1
        10        37     1
        10        38     1
        10        39     1
        11        20     1
        11        23     1
        12        19     1
        12        24     1
        12        25     1
        12        26     1
        12        27     1
        12        33     1
        13        19     1
        13        21     1
        13        30     1
        14        23     1
        14        31     1
        15        18     1
        15        21     1
        15        22     1
        16        18     1
        16        24     1
        16        25     1
        16        28     1
        16        32     1
        16        33     1
        16        43     1
        16        44     1
        16        46     1
        17        18     1
        17        26     1
        17        27     1
        17        28     1
        17        32     1
        18        20     1
        19        29     1
        19        31     1
        20        25     1
        20        27     1
        20        48     1
        20        49     1
        20        50     1
        20        52     1
        20        53     1
        20        54     1
        20        56     1
        21        23     1
        21        31     1
        22        29     1
        22        31     1
        23        25     1
        23        26     1
        23        30     1
        23        32     1
        24        45     1
        26        47     1
        26        51     1
        26        55     1
        27        45     1
        28        34     1
        28        35     1
        28        40     1
        28        41     1
        29        30     1
        34        36     1
        34        37     1
        34        42     1
        35        36     1
        35        37     1
        35        42     1
        38        40     1
        38        41     1
        39        40     1
        39        41     1
        40        42     1
        41        42     1
        42        45     1
        43        47     1
        43        51     1
        43        55     1
        44        47     1
        44        51     1
        44        55     1
        47        52     1
        47        53     1
        47        54     1
        47        56     1
        48        51     1
        48        55     1
        49        51     1
        49        55     1
        50        51     1
        50        55     1
        51        56     1
        52        55     1
        53        55     1
        54        55     1
