; ITP file created by ByteFF-ML, 2026-02-21 08:21:40.347009

[ atomtypes ]
;name           bonded.type        at.num        mass        charge   ptype           sigma         epsilon
 c0bf                                   6      0.0000       0.00000       A     3.39825e-01     4.50572e-01
 c1bf                                   6      0.0000       0.00000       A     3.39678e-01     4.51033e-01
 c2bf                                   6      0.0000       0.00000       A     3.39678e-01     4.51033e-01
 c3bf                                   6      0.0000       0.00000       A     3.39825e-01     4.50572e-01
 c4bf                                   6      0.0000       0.00000       A     3.31468e-01     4.12718e-01
 o5bf                                   8      0.0000       0.00000       A     3.15644e-01     3.03351e-01
 c6bf                                   6      0.0000       0.00000       A     3.31494e-01     4.12163e-01
 c7bf                                   6      0.0000       0.00000       A     3.31482e-01     4.13404e-01
 c8bf                                   6      0.0000       0.00000       A     3.31509e-01     4.13829e-01
 c9bf                                   6      0.0000       0.00000       A     3.39714e-01     4.52178e-01
 c10bf                                  6      0.0000       0.00000       A     3.31255e-01     4.13813e-01
 c11bf                                  6      0.0000       0.00000       A     3.31659e-01     4.13008e-01
 c12bf                                  6      0.0000       0.00000       A     3.31488e-01     4.13497e-01
 c13bf                                  6      0.0000       0.00000       A     3.31494e-01     4.12507e-01
 c14bf                                  6      0.0000       0.00000       A     3.31504e-01     4.12314e-01
 c15bf                                  6      0.0000       0.00000       A     3.31533e-01     4.13682e-01
 c16bf                                  6      0.0000       0.00000       A     3.31272e-01     4.14320e-01
 c17bf                                  6      0.0000       0.00000       A     3.31267e-01     4.17391e-01
 c18bf                                  6      0.0000       0.00000       A     3.31474e-01     4.12750e-01
 f19bf                                  9      0.0000       0.00000       A     3.03295e-01     3.47905e-01
 f20bf                                  9      0.0000       0.00000       A     3.03414e-01     3.47611e-01
 o21bf                                  8      0.0000       0.00000       A     3.16237e-01     3.10121e-01
 n22bf                                  7      0.0000       0.00000       A     3.38488e-01     3.93278e-01
 o23bf                                  8      0.0000       0.00000       A     3.04735e-01     6.09860e-01
 n24bf                                  7      0.0000       0.00000       A     3.18645e-01     6.91783e-01
 n25bf                                  7      0.0000       0.00000       A     3.38618e-01     3.90557e-01
 n26bf                                  7      0.0000       0.00000       A     3.27859e-01     6.48853e-01
 h27bf                                  1      0.0000       0.00000       A     2.62547e-01     6.71514e-02
 h28bf                                  1      0.0000       0.00000       A     2.62373e-01     6.68945e-02
 h29bf                                  1      0.0000       0.00000       A     2.62520e-01     6.71642e-02
 h30bf                                  1      0.0000       0.00000       A     2.62452e-01     6.74148e-02
 h31bf                                  1      0.0000       0.00000       A     2.53572e-01     6.74323e-02
 h32bf                                  1      0.0000       0.00000       A     2.59805e-01     8.76130e-02
 h33bf                                  1      0.0000       0.00000       A     2.59805e-01     8.76130e-02
 h34bf                                  1      0.0000       0.00000       A     2.42083e-01     8.71949e-02
 h35bf                                  1      0.0000       0.00000       A     2.42083e-01     8.71949e-02
 h36bf                                  1      0.0000       0.00000       A     2.42083e-01     8.71949e-02
 h37bf                                  1      0.0000       0.00000       A     2.42083e-01     8.71949e-02
 h38bf                                  1      0.0000       0.00000       A     2.59805e-01     8.76130e-02
 h39bf                                  1      0.0000       0.00000       A     2.59805e-01     8.76130e-02
 h40bf                                  1      0.0000       0.00000       A     2.42326e-01     8.58414e-02
 h41bf                                  1      0.0000       0.00000       A     2.42125e-01     8.89234e-02
 h42bf                                  1      0.0000       0.00000       A     1.10329e-01     4.16526e-02
 c43bf                                  6      0.0000       0.00000       A     3.39539e-01     4.48850e-01
 c44bf                                  6      0.0000       0.00000       A     3.39786e-01     4.51009e-01
 c45bf                                  6      0.0000       0.00000       A     3.39741e-01     4.51721e-01
 c46bf                                  6      0.0000       0.00000       A     3.39786e-01     4.51009e-01
 c47bf                                  6      0.0000       0.00000       A     3.39539e-01     4.48850e-01
 n48bf                                  7      0.0000       0.00000       A     3.36649e-01     3.58824e-01
 h49bf                                  1      0.0000       0.00000       A     2.42134e-01     8.74024e-02
 h50bf                                  1      0.0000       0.00000       A     2.42134e-01     8.74024e-02
 h51bf                                  1      0.0000       0.00000       A     2.60054e-01     8.78189e-02
 h52bf                                  1      0.0000       0.00000       A     2.60054e-01     8.78189e-02
 h53bf                                  1      0.0000       0.00000       A     2.60054e-01     8.78189e-02
 h54bf                                  1      0.0000       0.00000       A     2.60054e-01     8.78189e-02
 h55bf                                  1      0.0000       0.00000       A     2.42134e-01     8.74024e-02
 h56bf                                  1      0.0000       0.00000       A     2.42134e-01     8.74024e-02
 s57bf                                 16      0.0000       0.00000       A     4.06252e-01     2.57717e-01
 o58bf                                  8      0.0000       0.00000       A     3.04855e-01     6.11007e-01
 o59bf                                  8      0.0000       0.00000       A     3.04855e-01     6.11007e-01
 c60bf                                  6      0.0000       0.00000       A     3.39672e-01     4.49811e-01
 h61bf                                  1      0.0000       0.00000       A     2.42019e-01     8.73609e-02
 h62bf                                  1      0.0000       0.00000       A     2.42019e-01     8.73609e-02
 h63bf                                  1      0.0000       0.00000       A     2.42019e-01     8.73609e-02

[ moleculetype ]
;name             nrexcl
 2u                    3

[ atoms ]
;       nr            type      resi   res      atom      cgnr      charge          mass ; qtot
         1            c0bf         1   UNL        c0         1    -0.12568       12.0110 ; qtot   -0.126
         2            c1bf         1   UNL        c1         2     0.15457       12.0110 ; qtot    0.029
         3            c2bf         1   UNL        c2         3     0.15457       12.0110 ; qtot    0.183
         4            c3bf         1   UNL        c3         4    -0.12568       12.0110 ; qtot    0.058
         5            c4bf         1   UNL        c4         5    -0.17396       12.0110 ; qtot   -0.116
         6            o5bf         1   UNL        o5         6    -0.46215       15.9990 ; qtot   -0.578
         7            c6bf         1   UNL        c6         7     0.56505       12.0110 ; qtot   -0.013
         8            c7bf         1   UNL        c7         8     0.17941       12.0110 ; qtot    0.166
         9            c8bf         1   UNL        c8         9     0.40837       12.0110 ; qtot    0.575
        10            c9bf         1   UNL        c9        10     0.24222       12.0110 ; qtot    0.817
        11           c10bf         1   UNL       c10        11    -0.27787       12.0110 ; qtot    0.539
        12           c11bf         1   UNL       c11        12    -0.09546       12.0110 ; qtot    0.443
        13           c12bf         1   UNL       c12        13     0.18085       12.0110 ; qtot    0.624
        14           c13bf         1   UNL       c13        14    -0.14500       12.0110 ; qtot    0.479
        15           c14bf         1   UNL       c14        15    -0.07757       12.0110 ; qtot    0.402
        16           c15bf         1   UNL       c15        16     0.31749       12.0110 ; qtot    0.719
        17           c16bf         1   UNL       c16        17     0.20253       12.0110 ; qtot    0.922
        18           c17bf         1   UNL       c17        18     0.00704       12.0110 ; qtot    0.929
        19           c18bf         1   UNL       c18        19     0.05634       12.0110 ; qtot    0.985
        20           f19bf         1   UNL       f19        20    -0.16069       18.9980 ; qtot    0.824
        21           f20bf         1   UNL       f20        21    -0.17407       18.9980 ; qtot    0.650
        22           o21bf         1   UNL       o21        22    -0.21282       15.9990 ; qtot    0.437
        23           n22bf         1   UNL       n22        23    -0.24981       14.0070 ; qtot    0.188
        24           o23bf         1   UNL       o23        24    -0.52898       15.9990 ; qtot   -0.341
        25           n24bf         1   UNL       n24        25    -0.36368       14.0070 ; qtot   -0.705
        26           n25bf         1   UNL       n25        26    -0.30325       14.0070 ; qtot   -1.008
        27           n26bf         1   UNL       n26        27    -0.90688       14.0070 ; qtot   -1.915
        28           h27bf         1   UNL       h27        28     0.14202        1.0080 ; qtot   -1.773
        29           h28bf         1   UNL       h28        29     0.14072        1.0080 ; qtot   -1.632
        30           h29bf         1   UNL       h29        30     0.15735        1.0080 ; qtot   -1.475
        31           h30bf         1   UNL       h30        31     0.20635        1.0080 ; qtot   -1.269
        32           h31bf         1   UNL       h31        32     0.02822        1.0080 ; qtot   -1.240
        33           h32bf         1   UNL       h32        33     0.05821        1.0080 ; qtot   -1.182
        34           h33bf         1   UNL       h33        34     0.05821        1.0080 ; qtot   -1.124
        35           h34bf         1   UNL       h34        35     0.04708        1.0080 ; qtot   -1.077
        36           h35bf         1   UNL       h35        36     0.04708        1.0080 ; qtot   -1.030
        37           h36bf         1   UNL       h36        37     0.04708        1.0080 ; qtot   -0.983
        38           h37bf         1   UNL       h37        38     0.04708        1.0080 ; qtot   -0.936
        39           h38bf         1   UNL       h38        39     0.05821        1.0080 ; qtot   -0.877
        40           h39bf         1   UNL       h39        40     0.05821        1.0080 ; qtot   -0.819
        41           h40bf         1   UNL       h40        41     0.06788        1.0080 ; qtot   -0.751
        42           h41bf         1   UNL       h41        42     0.08017        1.0080 ; qtot   -0.671
        43           h42bf         1   UNL       h42        43     0.49590        1.0080 ; qtot   -0.175
        44           c43bf         1   UNL       c43        44     0.19927       12.0110 ; qtot    0.024
        45           c44bf         1   UNL       c44        45    -0.09909       12.0110 ; qtot   -0.075
        46           c45bf         1   UNL       c45        46     0.11281       12.0110 ; qtot    0.038
        47           c46bf         1   UNL       c46        47    -0.09909       12.0110 ; qtot   -0.061
        48           c47bf         1   UNL       c47        48     0.19927       12.0110 ; qtot    0.138
        49           n48bf         1   UNL       n48        49    -0.72276       14.0070 ; qtot   -0.585
        50           h49bf         1   UNL       h49        50     0.06479        1.0080 ; qtot   -0.520
        51           h50bf         1   UNL       h50        51     0.06479        1.0080 ; qtot   -0.455
        52           h51bf         1   UNL       h51        52     0.06669        1.0080 ; qtot   -0.389
        53           h52bf         1   UNL       h52        53     0.06669        1.0080 ; qtot   -0.322
        54           h53bf         1   UNL       h53        54     0.06669        1.0080 ; qtot   -0.255
        55           h54bf         1   UNL       h54        55     0.06669        1.0080 ; qtot   -0.189
        56           h55bf         1   UNL       h55        56     0.06479        1.0080 ; qtot   -0.124
        57           h56bf         1   UNL       h56        57     0.06479        1.0080 ; qtot   -0.059
        58           s57bf         1   UNL       s57        58     1.12171       32.0670 ; qtot    1.063
        59           o58bf         1   UNL       o58        59    -0.52450       15.9990 ; qtot    0.538
        60           o59bf         1   UNL       o59        60    -0.52450       15.9990 ; qtot    0.014
        61           c60bf         1   UNL       c60        61    -0.32172       12.0110 ; qtot   -0.308
        62           h61bf         1   UNL       h61        62     0.10267        1.0080 ; qtot   -0.205
        63           h62bf         1   UNL       h62        63     0.10267        1.0080 ; qtot   -0.103
        64           h63bf         1   UNL       h63        64     0.10268        1.0080 ; qtot    0.000

[ bonds ]
;       ai        aj funct               r               k
         1         2     1        0.153597   178293.892139
         1        10     1        0.154056   172093.226611
         1        33     1        0.109441   299169.023926
         1        34     1        0.109441   299169.023926
         2         6     1        0.143005   196789.616040
         2        35     1        0.109640   291280.534229
         2        36     1        0.109640   291280.534229
         3         4     1        0.153597   178293.892139
         3         6     1        0.143005   196789.616040
         3        37     1        0.109640   291280.534229
         3        38     1        0.109640   291280.534229
         4        10     1        0.154056   172093.226611
         4        39     1        0.109441   299169.023926
         4        40     1        0.109441   299169.023926
         5         8     1        0.139038   316524.477588
         5        13     1        0.139274   306854.774512
         5        30     1        0.108387   329224.286377
         7        18     1        0.147625   177014.189282
         7        24     1        0.123249   581940.925293
         7        25     1        0.140847   185498.217139
         8        19     1        0.139881   278838.982227
         8        20     1        0.134995   302917.054395
         9        23     1        0.136158   237062.671777
         9        26     1        0.134603   277074.035986
         9        27     1        0.135921   334632.714160
        10        27     1        0.146342   195657.096313
        10        41     1        0.109339   302297.626270
        11        12     1        0.142983   269806.200195
        11        16     1        0.141856   250553.390381
        11        17     1        0.140313   291227.391504
        12        18     1        0.135631   414664.227344
        12        31     1        0.108544   321751.259912
        13        14     1        0.139128   306394.902246
        13        21     1        0.135607   292150.787842
        14        15     1        0.139766   317517.437012
        14        28     1        0.108444   326597.692529
        15        19     1        0.139462   301245.318604
        15        29     1        0.108442   325811.353857
        16        25     1        0.137967   263793.845312
        16        26     1        0.133538   325942.435840
        17        23     1        0.132428   375854.639502
        17        32     1        0.108986   309559.154395
        18        22     1        0.136894   261589.226660
        19        22     1        0.138212   246098.543799
        25        46     1        0.149119   144375.541772
        27        43     1        0.101197   417437.148828
        42        46     1        0.108844   312016.947949
        44        45     1        0.153146   184585.125024
        44        49     1        0.147981   171697.899390
        44        50     1        0.109348   298726.491357
        44        51     1        0.109348   298726.491357
        45        46     1        0.154064   171231.476855
        45        52     1        0.109280   302946.064551
        45        53     1        0.109280   302946.064551
        46        47     1        0.154064   171231.464087
        47        48     1        0.153146   184585.150562
        47        54     1        0.109280   302946.064551
        47        55     1        0.109280   302946.064551
        48        49     1        0.147981   171697.899390
        48        56     1        0.109348   298726.491357
        48        57     1        0.109348   298726.491357
        49        58     1        0.168926   146608.276782
        58        59     1        0.146766   512369.412109
        58        60     1        0.146766   512369.412109
        58        61     1        0.180691   144305.748853
        61        62     1        0.109010   319838.070752
        61        63     1        0.109010   319838.070752
        61        64     1        0.109010   319838.070752

[ angles ]
;       ai        aj        ak funct           theta             cth
         1         2         6     1      112.057350      650.229837
         1         2        35     1      110.599220      486.660342
         1         2        36     1      110.599220      486.660342
         1        10         4     1      109.670731      539.148838
         1        10        27     1      111.413162      594.575027
         1        10        41     1      108.438194      470.541861
         2         1        10     1      110.143417      679.501302
         2         1        33     1      109.782654      502.446362
         2         1        34     1      109.782654      502.446362
         2         6         3     1      112.347824      593.219262
         3         4        10     1      110.143417      679.501302
         3         4        39     1      109.782654      502.446362
         3         4        40     1      109.782654      502.446362
         4         3         6     1      112.057350      650.229837
         4         3        37     1      110.599220      486.660342
         4         3        38     1      110.599220      486.660342
         4        10        27     1      111.413162      594.575027
         4        10        41     1      108.438194      470.541861
         5         8        19     1      121.913330      589.890372
         5         8        20     1      119.021118      546.594501
         5        13        14     1      122.381203      586.088790
         5        13        21     1      118.423096      577.916724
         6         2        35     1      107.737404      465.042190
         6         2        36     1      107.737404      465.042190
         6         3        37     1      107.737404      465.042190
         6         3        38     1      107.737404      465.042190
         7        18        12     1      122.073486      719.712673
         7        18        22     1      115.868607      321.610525
         7        25        16     1      121.738792      601.540338
         7        25        46     1      117.639877      638.938604
         8         5        13     1      117.606956      745.241738
         8         5        30     1      120.750504      415.603623
         8        19        15     1      118.750526      612.866939
         8        19        22     1      120.029922      362.533838
         9        23        17     1      115.936539      932.024689
         9        26        16     1      116.721825      756.010418
         9        27        10     1      124.626244      452.421814
         9        27        43     1      113.914322      482.608465
        10         1        33     1      109.667801      496.043027
        10         1        34     1      109.667801      496.043027
        10         4        39     1      109.667801      496.043027
        10         4        40     1      109.667801      496.043027
        10        27        43     1      118.351364      413.441906
        11        12        18     1      119.803787      511.506928
        11        12        31     1      120.018410      409.235306
        11        16        25     1      119.654922      604.945966
        11        16        26     1      121.915588      730.317021
        11        17        23     1      123.621666      735.388053
        11        17        32     1      119.625267      405.793255
        12        11        16     1      120.090981      694.314485
        12        11        17     1      124.811050      443.883290
        12        18        22     1      121.738892      451.190063
        13         5        30     1      121.558578      415.206138
        13        14        15     1      118.578598      692.396968
        13        14        28     1      119.971153      420.856319
        14        13        21     1      119.175308      576.491115
        14        15        19     1      120.569313      694.362878
        14        15        29     1      120.676376      412.191418
        15        14        28     1      121.452782      418.521557
        15        19        22     1      120.923965      502.393085
        16        11        17     1      115.225143      849.332017
        16        25        46     1      120.177841      536.634071
        18         7        24     1      122.143654      317.705454
        18         7        25     1      116.188583      675.992567
        18        12        31     1      120.109131      429.321871
        18        22        19     1      118.736267      414.561230
        19         8        20     1      119.050255      408.388879
        19        15        29     1      118.790672      407.974571
        23         9        26     1      126.168701      633.868530
        23         9        27     1      116.792007      601.045109
        23        17        32     1      116.361893      437.365485
        24         7        25     1      121.974915      608.457447
        25        16        26     1      119.004196      540.371555
        25        46        42     1      103.491623      545.242695
        25        46        45     1      112.699913      605.947851
        25        46        47     1      112.699913      605.947851
        26         9        27     1      116.465347      535.065167
        27        10        41     1      106.415306      519.306983
        33         1        34     1      107.383133      356.326501
        35         2        36     1      107.873230      341.256574
        37         3        38     1      107.873230      341.256574
        39         4        40     1      107.383133      356.326501
        42        46        45     1      107.229004      455.417923
        42        46        47     1      107.229004      455.417923
        44        45        46     1      110.907448      642.564427
        44        45        52     1      109.338303      510.468877
        44        45        53     1      109.338303      510.468877
        44        49        48     1      114.926147      508.134529
        44        49        58     1      115.933998      591.310874
        45        44        49     1      110.108398      657.353158
        45        44        50     1      110.494202      494.225487
        45        44        51     1      110.494202      494.225487
        45        46        47     1      111.419632      502.011816
        46        45        52     1      109.768356      487.436575
        46        45        53     1      109.768356      487.436575
        46        47        48     1      110.907448      642.564427
        46        47        54     1      109.768356      487.436575
        46        47        55     1      109.768356      487.436575
        47        48        49     1      110.108398      657.353158
        47        48        56     1      110.494186      494.225487
        47        48        57     1      110.494186      494.225487
        48        47        54     1      109.338303      510.468877
        48        47        55     1      109.338303      510.468877
        48        49        58     1      115.933983      591.310874
        49        44        50     1      109.061157      429.171234
        49        44        51     1      109.061157      429.171234
        49        48        56     1      109.061157      429.171234
        49        48        57     1      109.061157      429.171234
        49        58        59     1      107.923500      634.875076
        49        58        60     1      107.923500      634.875076
        49        58        61     1      103.368576      575.083765
        50        44        51     1      107.614014      345.623452
        52        45        53     1      107.499527      353.312963
        54        47        55     1      107.499527      353.312963
        56        48        57     1      107.614014      345.623452
        58        61        62     1      108.047714      570.999806
        58        61        63     1      108.047714      570.999806
        58        61        64     1      108.047714      570.999806
        59        58        60     1      121.016212      718.684485
        59        58        61     1      107.143959      686.168275
        60        58        61     1      107.143959      686.168275
        62        61        63     1      111.013893      345.584316
        62        61        64     1      111.013893      345.584316
        63        61        64     1      111.013893      345.584316

[ dihedrals ] ; propers for gromacs 4.5 or higher, use funct 9
;       ai        aj        ak        al funct           phase               k        pn
         1         2         6         3     9        0.000000        0.656407         1
         1         2         6         3     9      180.000000       -0.958141         2
         1         2         6         3     9        0.000000        0.587773         3
         1         2         6         3     9      180.000000        0.053351         4
         1        10         4         3     9        0.000000        2.989875         1
         1        10         4         3     9      180.000000       -3.284302         2
         1        10         4         3     9        0.000000        0.008029         3
         1        10         4         3     9      180.000000        0.128316         4
         1        10         4        39     9        0.000000       -0.034793         1
         1        10         4        39     9      180.000000        0.064745         2
         1        10         4        39     9        0.000000        0.298913         3
         1        10         4        39     9      180.000000        0.014470         4
         1        10         4        40     9        0.000000       -0.034793         1
         1        10         4        40     9      180.000000        0.064745         2
         1        10         4        40     9        0.000000        0.298913         3
         1        10         4        40     9      180.000000        0.014470         4
         1        10        27         9     9        0.000000       -0.199712         1
         1        10        27         9     9      180.000000       -0.233126         2
         1        10        27         9     9        0.000000        0.548031         3
         1        10        27         9     9      180.000000        0.023029         4
         1        10        27        43     9        0.000000       -0.211311         1
         1        10        27        43     9      180.000000        0.210202         2
         1        10        27        43     9        0.000000        0.038851         3
         1        10        27        43     9      180.000000       -0.020037         4
         2         1        10         4     9        0.000000        2.989875         1
         2         1        10         4     9      180.000000       -3.284302         2
         2         1        10         4     9        0.000000        0.008029         3
         2         1        10         4     9      180.000000        0.128316         4
         2         1        10        27     9        0.000000       -1.913323         1
         2         1        10        27     9      180.000000       -1.584994         2
         2         1        10        27     9        0.000000        0.106704         3
         2         1        10        27     9      180.000000        0.296263         4
         2         1        10        41     9        0.000000       -0.000719         1
         2         1        10        41     9      180.000000       -0.002826         2
         2         1        10        41     9        0.000000        0.168043         3
         2         1        10        41     9      180.000000        0.040671         4
         2         6         3         4     9        0.000000        0.656407         1
         2         6         3         4     9      180.000000       -0.958141         2
         2         6         3         4     9        0.000000        0.587773         3
         2         6         3         4     9      180.000000        0.053351         4
         2         6         3        37     9        0.000000       -0.046698         1
         2         6         3        37     9      180.000000        0.044371         2
         2         6         3        37     9        0.000000        0.473257         3
         2         6         3        37     9      180.000000       -0.000534         4
         2         6         3        38     9        0.000000       -0.046698         1
         2         6         3        38     9      180.000000        0.044371         2
         2         6         3        38     9        0.000000        0.473257         3
         2         6         3        38     9      180.000000       -0.000534         4
         3         4        10        27     9        0.000000       -1.913323         1
         3         4        10        27     9      180.000000       -1.584994         2
         3         4        10        27     9        0.000000        0.106704         3
         3         4        10        27     9      180.000000        0.296263         4
         3         4        10        41     9        0.000000       -0.000719         1
         3         4        10        41     9      180.000000       -0.002826         2
         3         4        10        41     9        0.000000        0.168043         3
         3         4        10        41     9      180.000000        0.040671         4
         3         6         2        35     9        0.000000       -0.046698         1
         3         6         2        35     9      180.000000        0.044371         2
         3         6         2        35     9        0.000000        0.473257         3
         3         6         2        35     9      180.000000       -0.000534         4
         3         6         2        36     9        0.000000       -0.046698         1
         3         6         2        36     9      180.000000        0.044371         2
         3         6         2        36     9        0.000000        0.473257         3
         3         6         2        36     9      180.000000       -0.000534         4
         4        10         1        33     9        0.000000       -0.034793         1
         4        10         1        33     9      180.000000        0.064745         2
         4        10         1        33     9        0.000000        0.298913         3
         4        10         1        33     9      180.000000        0.014470         4
         4        10         1        34     9        0.000000       -0.034793         1
         4        10         1        34     9      180.000000        0.064745         2
         4        10         1        34     9        0.000000        0.298913         3
         4        10         1        34     9      180.000000        0.014470         4
         4        10        27         9     9        0.000000       -0.199712         1
         4        10        27         9     9      180.000000       -0.233126         2
         4        10        27         9     9        0.000000        0.548031         3
         4        10        27         9     9      180.000000        0.023029         4
         4        10        27        43     9        0.000000       -0.211311         1
         4        10        27        43     9      180.000000        0.210202         2
         4        10        27        43     9        0.000000        0.038851         3
         4        10        27        43     9      180.000000       -0.020037         4
         5         8        19        15     9        0.000000       -0.033769         1
         5         8        19        15     9      180.000000       15.070050         2
         5         8        19        15     9        0.000000       -0.822733         3
         5         8        19        15     9      180.000000       -0.166007         4
         5         8        19        22     9        0.000000        0.211378         1
         5         8        19        22     9      180.000000       15.789042         2
         5         8        19        22     9        0.000000        0.044915         3
         5         8        19        22     9      180.000000       -0.232419         4
         5        13        14        15     9        0.000000       -0.084562         1
         5        13        14        15     9      180.000000       17.436868         2
         5        13        14        15     9        0.000000       -1.215052         3
         5        13        14        15     9      180.000000       -0.350359         4
         5        13        14        28     9        0.000000        0.222596         1
         5        13        14        28     9      180.000000       12.990702         2
         5        13        14        28     9        0.000000       -0.533192         3
         5        13        14        28     9      180.000000        0.123340         4
         6         2         1        10     9        0.000000        0.588019         1
         6         2         1        10     9      180.000000       -1.553809         2
         6         2         1        10     9        0.000000        0.318518         3
         6         2         1        10     9      180.000000        0.071837         4
         6         2         1        33     9        0.000000       -0.070257         1
         6         2         1        33     9      180.000000        0.057420         2
         6         2         1        33     9        0.000000        0.194875         3
         6         2         1        33     9      180.000000       -0.007724         4
         6         2         1        34     9        0.000000       -0.070257         1
         6         2         1        34     9      180.000000        0.057420         2
         6         2         1        34     9        0.000000        0.194875         3
         6         2         1        34     9      180.000000       -0.007724         4
         6         3         4        10     9        0.000000        0.588019         1
         6         3         4        10     9      180.000000       -1.553809         2
         6         3         4        10     9        0.000000        0.318518         3
         6         3         4        10     9      180.000000        0.071837         4
         6         3         4        39     9        0.000000       -0.070257         1
         6         3         4        39     9      180.000000        0.057420         2
         6         3         4        39     9        0.000000        0.194875         3
         6         3         4        39     9      180.000000       -0.007724         4
         6         3         4        40     9        0.000000       -0.070257         1
         6         3         4        40     9      180.000000        0.057420         2
         6         3         4        40     9        0.000000        0.194875         3
         6         3         4        40     9      180.000000       -0.007724         4
         7        18        12        11     9        0.000000       -0.345741         1
         7        18        12        11     9      180.000000       19.935036         2
         7        18        12        11     9        0.000000       -0.890679         3
         7        18        12        11     9      180.000000       -0.854499         4
         7        18        12        31     9        0.000000       -0.043706         1
         7        18        12        31     9      180.000000       14.990786         2
         7        18        12        31     9        0.000000       -0.210948         3
         7        18        12        31     9      180.000000        0.097821         4
         7        18        22        19     9        0.000000        1.270461         1
         7        18        22        19     9      180.000000        3.556939         2
         7        18        22        19     9        0.000000        1.478786         3
         7        18        22        19     9      180.000000       -0.357215         4
         7        25        16        11     9        0.000000       -1.384428         1
         7        25        16        11     9      180.000000        5.654286         2
         7        25        16        11     9        0.000000       -0.620759         3
         7        25        16        11     9      180.000000        0.304111         4
         7        25        16        26     9        0.000000        0.527604         1
         7        25        16        26     9      180.000000        7.284354         2
         7        25        16        26     9        0.000000        0.369805         3
         7        25        16        26     9      180.000000       -0.122046         4
         7        25        46        42     9        0.000000       -0.487110         1
         7        25        46        42     9      180.000000        0.557726         2
         7        25        46        42     9        0.000000       -0.043794         3
         7        25        46        42     9      180.000000        0.955537         4
         7        25        46        45     9        0.000000        0.354091         1
         7        25        46        45     9      180.000000       -0.081305         2
         7        25        46        45     9        0.000000        0.321768         3
         7        25        46        45     9      180.000000        0.098148         4
         7        25        46        47     9        0.000000        0.354091         1
         7        25        46        47     9      180.000000       -0.081305         2
         7        25        46        47     9        0.000000        0.321768         3
         7        25        46        47     9      180.000000        0.098148         4
         8         5        13        14     9        0.000000       -0.101773         1
         8         5        13        14     9      180.000000       17.261374         2
         8         5        13        14     9        0.000000       -1.245547         3
         8         5        13        14     9      180.000000       -0.369105         4
         8         5        13        21     9        0.000000        0.202544         1
         8         5        13        21     9      180.000000       22.811181         2
         8         5        13        21     9        0.000000        0.550755         3
         8         5        13        21     9      180.000000       -0.701551         4
         8        19        15        14     9        0.000000       -0.019541         1
         8        19        15        14     9      180.000000       17.479613         2
         8        19        15        14     9        0.000000       -1.174083         3
         8        19        15        14     9      180.000000       -0.342804         4
         8        19        15        29     9        0.000000        0.103759         1
         8        19        15        29     9      180.000000       12.825624         2
         8        19        15        29     9        0.000000       -0.551226         3
         8        19        15        29     9      180.000000        0.193193         4
         8        19        22        18     9        0.000000        0.305439         1
         8        19        22        18     9      180.000000        2.027835         2
         8        19        22        18     9        0.000000        0.311261         3
         8        19        22        18     9      180.000000       -0.079794         4
         9        23        17        11     9        0.000000       -0.385184         1
         9        23        17        11     9      180.000000       21.178557         2
         9        23        17        11     9        0.000000       -1.513135         3
         9        23        17        11     9      180.000000       -0.246114         4
         9        23        17        32     9        0.000000        0.375250         1
         9        23        17        32     9      180.000000       19.142791         2
         9        23        17        32     9        0.000000       -0.106279         3
         9        23        17        32     9      180.000000       -0.248607         4
         9        26        16        11     9        0.000000       -0.322627         1
         9        26        16        11     9      180.000000       12.438241         2
         9        26        16        11     9        0.000000       -0.573480         3
         9        26        16        11     9      180.000000       -0.018581         4
         9        26        16        25     9        0.000000        0.067032         1
         9        26        16        25     9      180.000000       17.265608         2
         9        26        16        25     9        0.000000        0.578217         3
         9        26        16        25     9      180.000000       -0.691241         4
         9        27        10        41     9        0.000000       -0.133973         1
         9        27        10        41     9      180.000000        0.225462         2
         9        27        10        41     9        0.000000        0.650619         3
         9        27        10        41     9      180.000000        0.038940         4
        10         1         2        35     9        0.000000       -0.016397         1
        10         1         2        35     9      180.000000        0.056039         2
        10         1         2        35     9        0.000000        0.282909         3
        10         1         2        35     9      180.000000        0.009404         4
        10         1         2        36     9        0.000000       -0.016397         1
        10         1         2        36     9      180.000000        0.056039         2
        10         1         2        36     9        0.000000        0.282909         3
        10         1         2        36     9      180.000000        0.009404         4
        10         4         3        37     9        0.000000       -0.016397         1
        10         4         3        37     9      180.000000        0.056039         2
        10         4         3        37     9        0.000000        0.282909         3
        10         4         3        37     9      180.000000        0.009404         4
        10         4         3        38     9        0.000000       -0.016397         1
        10         4         3        38     9      180.000000        0.056039         2
        10         4         3        38     9        0.000000        0.282909         3
        10         4         3        38     9      180.000000        0.009404         4
        10        27         9        23     9        0.000000        0.379875         1
        10        27         9        23     9      180.000000        7.856189         2
        10        27         9        23     9        0.000000        0.646884         3
        10        27         9        23     9      180.000000       -0.887754         4
        10        27         9        26     9        0.000000        0.021431         1
        10        27         9        26     9      180.000000        8.304525         2
        10        27         9        26     9        0.000000        0.341802         3
        10        27         9        26     9      180.000000       -0.738866         4
        11        12        18        22     9        0.000000       -0.515615         1
        11        12        18        22     9      180.000000       27.339231         2
        11        12        18        22     9        0.000000       -0.110905         3
        11        12        18        22     9      180.000000       -1.517190         4
        11        16        25        46     9        0.000000        0.118951         1
        11        16        25        46     9      180.000000        7.482935         2
        11        16        25        46     9        0.000000        0.163038         3
        11        16        25        46     9      180.000000       -0.032801         4
        12        11        16        25     9        0.000000        0.202269         1
        12        11        16        25     9      180.000000       13.782572         2
        12        11        16        25     9        0.000000       -0.218417         3
        12        11        16        25     9      180.000000       -0.570875         4
        12        11        16        26     9        0.000000        0.197141         1
        12        11        16        26     9      180.000000       12.796848         2
        12        11        16        26     9        0.000000        0.135249         3
        12        11        16        26     9      180.000000       -0.409690         4
        12        11        17        23     9        0.000000        0.058781         1
        12        11        17        23     9      180.000000       14.124414         2
        12        11        17        23     9        0.000000        0.066152         3
        12        11        17        23     9      180.000000       -0.505810         4
        12        11        17        32     9        0.000000        0.133090         1
        12        11        17        32     9      180.000000       12.061971         2
        12        11        17        32     9        0.000000        0.237121         3
        12        11        17        32     9      180.000000       -0.113190         4
        12        18         7        24     9        0.000000        0.559729         1
        12        18         7        24     9      180.000000        5.500507         2
        12        18         7        24     9        0.000000        0.004692         3
        12        18         7        24     9      180.000000       -0.456612         4
        12        18         7        25     9        0.000000        2.287124         1
        12        18         7        25     9      180.000000        1.943978         2
        12        18         7        25     9        0.000000        0.256077         3
        12        18         7        25     9      180.000000       -0.026111         4
        12        18        22        19     9        0.000000       -0.289893         1
        12        18        22        19     9      180.000000        4.774466         2
        12        18        22        19     9        0.000000       -1.548342         3
        12        18        22        19     9      180.000000        0.164676         4
        13         5         8        19     9        0.000000       -0.159544         1
        13         5         8        19     9      180.000000       17.441704         2
        13         5         8        19     9        0.000000       -1.253452         3
        13         5         8        19     9      180.000000       -0.342164         4
        13         5         8        20     9        0.000000        0.535263         1
        13         5         8        20     9      180.000000       22.924715         2
        13         5         8        20     9        0.000000        0.562820         3
        13         5         8        20     9      180.000000       -0.548398         4
        13        14        15        19     9        0.000000       -0.193831         1
        13        14        15        19     9      180.000000       18.718306         2
        13        14        15        19     9        0.000000       -1.470902         3
        13        14        15        19     9      180.000000       -0.444338         4
        13        14        15        29     9        0.000000        0.152982         1
        13        14        15        29     9      180.000000       14.549566         2
        13        14        15        29     9        0.000000       -0.624237         3
        13        14        15        29     9      180.000000        0.081753         4
        14        13         5        30     9        0.000000        0.181711         1
        14        13         5        30     9      180.000000       12.249439         2
        14        13         5        30     9        0.000000       -0.437418         3
        14        13         5        30     9      180.000000        0.175566         4
        14        15        19        22     9        0.000000        0.429249         1
        14        15        19        22     9      180.000000       18.948900         2
        14        15        19        22     9        0.000000        0.316666         3
        14        15        19        22     9      180.000000       -0.397050         4
        15        14        13        21     9        0.000000        0.505280         1
        15        14        13        21     9      180.000000       23.564142         2
        15        14        13        21     9        0.000000        0.449858         3
        15        14        13        21     9      180.000000       -0.661252         4
        15        19         8        20     9        0.000000        0.586984         1
        15        19         8        20     9      180.000000       18.000233         2
        15        19         8        20     9        0.000000        0.390466         3
        15        19         8        20     9      180.000000       -0.347261         4
        15        19        22        18     9        0.000000       -0.727734         1
        15        19        22        18     9      180.000000        3.395697         2
        15        19        22        18     9        0.000000       -0.709420         3
        15        19        22        18     9      180.000000        0.155653         4
        16        11        12        18     9        0.000000       -0.920797         1
        16        11        12        18     9      180.000000       12.362463         2
        16        11        12        18     9        0.000000       -1.694851         3
        16        11        12        18     9      180.000000       -0.292780         4
        16        11        12        31     9        0.000000        0.176190         1
        16        11        12        31     9      180.000000        8.615452         2
        16        11        12        31     9        0.000000       -0.273699         3
        16        11        12        31     9      180.000000       -0.126661         4
        16        11        17        23     9        0.000000        0.087319         1
        16        11        17        23     9      180.000000       14.322445         2
        16        11        17        23     9        0.000000       -0.276785         3
        16        11        17        23     9      180.000000       -0.308747         4
        16        11        17        32     9        0.000000        0.289289         1
        16        11        17        32     9      180.000000       12.411059         2
        16        11        17        32     9        0.000000       -0.277619         3
        16        11        17        32     9      180.000000       -0.223585         4
        16        25         7        18     9        0.000000       -1.091359         1
        16        25         7        18     9      180.000000        5.209142         2
        16        25         7        18     9        0.000000       -0.123792         3
        16        25         7        18     9      180.000000       -0.006539         4
        16        25         7        24     9        0.000000       -0.198719         1
        16        25         7        24     9      180.000000       10.741704         2
        16        25         7        24     9        0.000000       -0.501249         3
        16        25         7        24     9      180.000000       -0.580691         4
        16        25        46        42     9        0.000000       -1.573494         1
        16        25        46        42     9      180.000000        0.412617         2
        16        25        46        42     9        0.000000       -0.036290         3
        16        25        46        42     9      180.000000        0.903811         4
        16        25        46        45     9        0.000000        0.128614         1
        16        25        46        45     9      180.000000       -0.116413         2
        16        25        46        45     9        0.000000        0.281169         3
        16        25        46        45     9      180.000000        0.180040         4
        16        25        46        47     9        0.000000        0.128614         1
        16        25        46        47     9      180.000000       -0.116413         2
        16        25        46        47     9        0.000000        0.281169         3
        16        25        46        47     9      180.000000        0.180040         4
        16        26         9        23     9        0.000000        0.844009         1
        16        26         9        23     9      180.000000        9.901397         2
        16        26         9        23     9        0.000000        0.535341         3
        16        26         9        23     9      180.000000       -0.384304         4
        16        26         9        27     9        0.000000        0.789667         1
        16        26         9        27     9      180.000000       15.791454         2
        16        26         9        27     9        0.000000        0.223134         3
        16        26         9        27     9      180.000000       -0.947327         4
        17        11        12        18     9        0.000000       -0.671895         1
        17        11        12        18     9      180.000000        8.899597         2
        17        11        12        18     9        0.000000       -0.859061         3
        17        11        12        18     9      180.000000        0.045946         4
        17        11        12        31     9        0.000000       -0.789294         1
        17        11        12        31     9      180.000000        5.198217         2
        17        11        12        31     9        0.000000       -0.400646         3
        17        11        12        31     9      180.000000       -0.072961         4
        17        11        16        25     9        0.000000       -0.162330         1
        17        11        16        25     9      180.000000       12.674229         2
        17        11        16        25     9        0.000000       -0.389916         3
        17        11        16        25     9      180.000000       -0.451704         4
        17        11        16        26     9        0.000000       -0.014620         1
        17        11        16        26     9      180.000000       11.243562         2
        17        11        16        26     9        0.000000        0.127122         3
        17        11        16        26     9      180.000000       -0.289546         4
        17        23         9        26     9        0.000000        0.784625         1
        17        23         9        26     9      180.000000        9.961519         2
        17        23         9        26     9        0.000000        0.766325         3
        17        23         9        26     9      180.000000       -0.521551         4
        17        23         9        27     9        0.000000        1.277418         1
        17        23         9        27     9      180.000000       15.051882         2
        17        23         9        27     9        0.000000        0.452365         3
        17        23         9        27     9      180.000000       -0.771077         4
        18         7        25        46     9        0.000000        0.388270         1
        18         7        25        46     9      180.000000        9.180452         2
        18         7        25        46     9        0.000000        0.178945         3
        18         7        25        46     9      180.000000       -0.272081         4
        19         8         5        30     9        0.000000        0.204290         1
        19         8         5        30     9      180.000000       12.330681         2
        19         8         5        30     9        0.000000       -0.429751         3
        19         8         5        30     9      180.000000        0.180492         4
        19        15        14        28     9        0.000000        0.085472         1
        19        15        14        28     9      180.000000       14.240721         2
        19        15        14        28     9        0.000000       -0.502525         3
        19        15        14        28     9      180.000000        0.093111         4
        20         8         5        30     9        0.000000        0.356408         1
        20         8         5        30     9      180.000000       15.755417         2
        20         8         5        30     9        0.000000        0.173168         3
        20         8         5        30     9      180.000000        0.272104         4
        20         8        19        22     9        0.000000       -0.107242         1
        20         8        19        22     9      180.000000       20.893407         2
        20         8        19        22     9        0.000000        0.245891         3
        20         8        19        22     9      180.000000       -0.890532         4
        21        13         5        30     9        0.000000        0.302040         1
        21        13         5        30     9      180.000000       14.938909         2
        21        13         5        30     9        0.000000        0.256433         3
        21        13         5        30     9      180.000000        0.230067         4
        21        13        14        28     9        0.000000        0.256909         1
        21        13        14        28     9      180.000000       16.033530         2
        21        13        14        28     9        0.000000        0.305426         3
        21        13        14        28     9      180.000000        0.139760         4
        22        18         7        24     9        0.000000       -2.055997         1
        22        18         7        24     9      180.000000       10.995541         2
        22        18         7        24     9        0.000000       -0.482917         3
        22        18         7        24     9      180.000000       -0.310166         4
        22        18         7        25     9        0.000000       -0.013970         1
        22        18         7        25     9      180.000000        7.476941         2
        22        18         7        25     9        0.000000        0.201556         3
        22        18         7        25     9      180.000000        0.035276         4
        22        18        12        31     9        0.000000        0.146400         1
        22        18        12        31     9      180.000000       19.660256         2
        22        18        12        31     9        0.000000        0.160195         3
        22        18        12        31     9      180.000000       -0.179420         4
        22        19        15        29     9        0.000000        0.170924         1
        22        19        15        29     9      180.000000       14.276127         2
        22        19        15        29     9        0.000000        0.167369         3
        22        19        15        29     9      180.000000        0.326111         4
        23         9        27        43     9        0.000000       -0.530662         1
        23         9        27        43     9      180.000000       10.516959         2
        23         9        27        43     9        0.000000       -0.440136         3
        23         9        27        43     9      180.000000       -0.616316         4
        24         7        25        46     9        0.000000       -0.191742         1
        24         7        25        46     9      180.000000       10.757281         2
        24         7        25        46     9        0.000000       -1.049897         3
        24         7        25        46     9      180.000000        0.257723         4
        25        46        45        44     9        0.000000       -4.076899         1
        25        46        45        44     9      180.000000       -1.081980         2
        25        46        45        44     9        0.000000        0.063099         3
        25        46        45        44     9      180.000000        0.208307         4
        25        46        45        52     9        0.000000        0.157308         1
        25        46        45        52     9      180.000000       -0.187377         2
        25        46        45        52     9        0.000000        0.339619         3
        25        46        45        52     9      180.000000       -0.041676         4
        25        46        45        53     9        0.000000        0.157308         1
        25        46        45        53     9      180.000000       -0.187377         2
        25        46        45        53     9        0.000000        0.339619         3
        25        46        45        53     9      180.000000       -0.041676         4
        25        46        47        48     9        0.000000       -4.076899         1
        25        46        47        48     9      180.000000       -1.081980         2
        25        46        47        48     9        0.000000        0.063099         3
        25        46        47        48     9      180.000000        0.208307         4
        25        46        47        54     9        0.000000        0.157308         1
        25        46        47        54     9      180.000000       -0.187377         2
        25        46        47        54     9        0.000000        0.339619         3
        25        46        47        54     9      180.000000       -0.041676         4
        25        46        47        55     9        0.000000        0.157308         1
        25        46        47        55     9      180.000000       -0.187377         2
        25        46        47        55     9        0.000000        0.339619         3
        25        46        47        55     9      180.000000       -0.041676         4
        26         9        27        43     9        0.000000        0.905315         1
        26         9        27        43     9      180.000000       10.539397         2
        26         9        27        43     9        0.000000       -0.495845         3
        26         9        27        43     9      180.000000       -0.474737         4
        26        16        25        46     9        0.000000       -1.357345         1
        26        16        25        46     9      180.000000        9.090352         2
        26        16        25        46     9        0.000000       -0.143120         3
        26        16        25        46     9      180.000000        0.010206         4
        27        10         1        33     9        0.000000        0.103752         1
        27        10         1        33     9      180.000000        0.093489         2
        27        10         1        33     9        0.000000        0.307978         3
        27        10         1        33     9      180.000000       -0.046607         4
        27        10         1        34     9        0.000000        0.103752         1
        27        10         1        34     9      180.000000        0.093489         2
        27        10         1        34     9        0.000000        0.307978         3
        27        10         1        34     9      180.000000       -0.046607         4
        27        10         4        39     9        0.000000        0.103752         1
        27        10         4        39     9      180.000000        0.093489         2
        27        10         4        39     9        0.000000        0.307978         3
        27        10         4        39     9      180.000000       -0.046607         4
        27        10         4        40     9        0.000000        0.103752         1
        27        10         4        40     9      180.000000        0.093489         2
        27        10         4        40     9        0.000000        0.307978         3
        27        10         4        40     9      180.000000       -0.046607         4
        28        14        15        29     9        0.000000       -0.156577         1
        28        14        15        29     9      180.000000       11.949670         2
        28        14        15        29     9        0.000000       -0.717198         3
        28        14        15        29     9      180.000000        0.181692         4
        33         1         2        35     9        0.000000       -0.014072         1
        33         1         2        35     9      180.000000       -0.013164         2
        33         1         2        35     9        0.000000        0.310609         3
        33         1         2        35     9      180.000000        0.009990         4
        33         1         2        36     9        0.000000       -0.014072         1
        33         1         2        36     9      180.000000       -0.013164         2
        33         1         2        36     9        0.000000        0.310609         3
        33         1         2        36     9      180.000000        0.009990         4
        33         1        10        41     9        0.000000       -0.005225         1
        33         1        10        41     9      180.000000        0.012815         2
        33         1        10        41     9        0.000000        0.279744         3
        33         1        10        41     9      180.000000        0.088945         4
        34         1         2        35     9        0.000000       -0.014072         1
        34         1         2        35     9      180.000000       -0.013164         2
        34         1         2        35     9        0.000000        0.310609         3
        34         1         2        35     9      180.000000        0.009990         4
        34         1         2        36     9        0.000000       -0.014072         1
        34         1         2        36     9      180.000000       -0.013164         2
        34         1         2        36     9        0.000000        0.310609         3
        34         1         2        36     9      180.000000        0.009990         4
        34         1        10        41     9        0.000000       -0.005225         1
        34         1        10        41     9      180.000000        0.012815         2
        34         1        10        41     9        0.000000        0.279744         3
        34         1        10        41     9      180.000000        0.088945         4
        37         3         4        39     9        0.000000       -0.014072         1
        37         3         4        39     9      180.000000       -0.013164         2
        37         3         4        39     9        0.000000        0.310609         3
        37         3         4        39     9      180.000000        0.009990         4
        37         3         4        40     9        0.000000       -0.014072         1
        37         3         4        40     9      180.000000       -0.013164         2
        37         3         4        40     9        0.000000        0.310609         3
        37         3         4        40     9      180.000000        0.009990         4
        38         3         4        39     9        0.000000       -0.014072         1
        38         3         4        39     9      180.000000       -0.013164         2
        38         3         4        39     9        0.000000        0.310609         3
        38         3         4        39     9      180.000000        0.009990         4
        38         3         4        40     9        0.000000       -0.014072         1
        38         3         4        40     9      180.000000       -0.013164         2
        38         3         4        40     9        0.000000        0.310609         3
        38         3         4        40     9      180.000000        0.009990         4
        39         4        10        41     9        0.000000       -0.005225         1
        39         4        10        41     9      180.000000        0.012815         2
        39         4        10        41     9        0.000000        0.279744         3
        39         4        10        41     9      180.000000        0.088945         4
        40         4        10        41     9        0.000000       -0.005225         1
        40         4        10        41     9      180.000000        0.012815         2
        40         4        10        41     9        0.000000        0.279744         3
        40         4        10        41     9      180.000000        0.088945         4
        41        10        27        43     9        0.000000       -0.695820         1
        41        10        27        43     9      180.000000       -0.162734         2
        41        10        27        43     9        0.000000        0.223778         3
        41        10        27        43     9      180.000000        0.050708         4
        42        46        45        44     9        0.000000       -0.449393         1
        42        46        45        44     9      180.000000       -0.242172         2
        42        46        45        44     9        0.000000        0.080701         3
        42        46        45        44     9      180.000000        0.172756         4
        42        46        45        52     9        0.000000       -0.079639         1
        42        46        45        52     9      180.000000        0.018504         2
        42        46        45        52     9        0.000000        0.406417         3
        42        46        45        52     9      180.000000        0.034917         4
        42        46        45        53     9        0.000000       -0.079639         1
        42        46        45        53     9      180.000000        0.018504         2
        42        46        45        53     9        0.000000        0.406417         3
        42        46        45        53     9      180.000000        0.034917         4
        42        46        47        48     9        0.000000       -0.449393         1
        42        46        47        48     9      180.000000       -0.242172         2
        42        46        47        48     9        0.000000        0.080701         3
        42        46        47        48     9      180.000000        0.172756         4
        42        46        47        54     9        0.000000       -0.079639         1
        42        46        47        54     9      180.000000        0.018504         2
        42        46        47        54     9        0.000000        0.406417         3
        42        46        47        54     9      180.000000        0.034917         4
        42        46        47        55     9        0.000000       -0.079639         1
        42        46        47        55     9      180.000000        0.018504         2
        42        46        47        55     9        0.000000        0.406417         3
        42        46        47        55     9      180.000000        0.034917         4
        44        45        46        47     9        0.000000        1.804010         1
        44        45        46        47     9      180.000000       -2.382746         2
        44        45        46        47     9        0.000000        0.064552         3
        44        45        46        47     9      180.000000        0.124308         4
        44        49        48        47     9        0.000000        2.592313         1
        44        49        48        47     9      180.000000       -0.863794         2
        44        49        48        47     9        0.000000        0.322106         3
        44        49        48        47     9      180.000000        0.161502         4
        44        49        48        56     9        0.000000       -0.040727         1
        44        49        48        56     9      180.000000        0.277053         2
        44        49        48        56     9        0.000000        0.656419         3
        44        49        48        56     9      180.000000        0.041721         4
        44        49        48        57     9        0.000000       -0.040727         1
        44        49        48        57     9      180.000000        0.277053         2
        44        49        48        57     9        0.000000        0.656419         3
        44        49        48        57     9      180.000000        0.041721         4
        44        49        58        59     9        0.000000        0.168591         1
        44        49        58        59     9      180.000000        1.159347         2
        44        49        58        59     9        0.000000        0.633146         3
        44        49        58        59     9      180.000000        0.056192         4
        44        49        58        60     9        0.000000        0.168591         1
        44        49        58        60     9      180.000000        1.159347         2
        44        49        58        60     9        0.000000        0.633146         3
        44        49        58        60     9      180.000000        0.056192         4
        44        49        58        61     9        0.000000       -1.445645         1
        44        49        58        61     9      180.000000       -4.265065         2
        44        49        58        61     9        0.000000        0.782480         3
        44        49        58        61     9      180.000000       -1.199795         4
        45        44        49        48     9        0.000000        2.592313         1
        45        44        49        48     9      180.000000       -0.863794         2
        45        44        49        48     9        0.000000        0.322106         3
        45        44        49        48     9      180.000000        0.161502         4
        45        44        49        58     9        0.000000       -4.958719         1
        45        44        49        58     9      180.000000        0.475451         2
        45        44        49        58     9        0.000000        0.174073         3
        45        44        49        58     9      180.000000       -0.350499         4
        45        46        47        48     9        0.000000        1.804010         1
        45        46        47        48     9      180.000000       -2.382746         2
        45        46        47        48     9        0.000000        0.064552         3
        45        46        47        48     9      180.000000        0.124308         4
        45        46        47        54     9        0.000000       -0.053097         1
        45        46        47        54     9      180.000000        0.027831         2
        45        46        47        54     9        0.000000        0.245649         3
        45        46        47        54     9      180.000000        0.034857         4
        45        46        47        55     9        0.000000       -0.053097         1
        45        46        47        55     9      180.000000        0.027831         2
        45        46        47        55     9        0.000000        0.245649         3
        45        46        47        55     9      180.000000        0.034857         4
        46        45        44        49     9        0.000000        0.301222         1
        46        45        44        49     9      180.000000       -1.458366         2
        46        45        44        49     9        0.000000        0.194985         3
        46        45        44        49     9      180.000000        0.014010         4
        46        45        44        50     9        0.000000        0.001271         1
        46        45        44        50     9      180.000000        0.078051         2
        46        45        44        50     9        0.000000        0.157548         3
        46        45        44        50     9      180.000000       -0.006845         4
        46        45        44        51     9        0.000000        0.001271         1
        46        45        44        51     9      180.000000        0.078051         2
        46        45        44        51     9        0.000000        0.157548         3
        46        45        44        51     9      180.000000       -0.006845         4
        46        47        48        49     9        0.000000        0.301222         1
        46        47        48        49     9      180.000000       -1.458366         2
        46        47        48        49     9        0.000000        0.194985         3
        46        47        48        49     9      180.000000        0.014010         4
        46        47        48        56     9        0.000000        0.001271         1
        46        47        48        56     9      180.000000        0.078051         2
        46        47        48        56     9        0.000000        0.157548         3
        46        47        48        56     9      180.000000       -0.006845         4
        46        47        48        57     9        0.000000        0.001271         1
        46        47        48        57     9      180.000000        0.078051         2
        46        47        48        57     9        0.000000        0.157548         3
        46        47        48        57     9      180.000000       -0.006845         4
        47        46        45        52     9        0.000000       -0.053097         1
        47        46        45        52     9      180.000000        0.027831         2
        47        46        45        52     9        0.000000        0.245649         3
        47        46        45        52     9      180.000000        0.034857         4
        47        46        45        53     9        0.000000       -0.053097         1
        47        46        45        53     9      180.000000        0.027831         2
        47        46        45        53     9        0.000000        0.245649         3
        47        46        45        53     9      180.000000        0.034857         4
        47        48        49        58     9        0.000000       -4.958719         1
        47        48        49        58     9      180.000000        0.475451         2
        47        48        49        58     9        0.000000        0.174073         3
        47        48        49        58     9      180.000000       -0.350499         4
        48        49        44        50     9        0.000000       -0.040727         1
        48        49        44        50     9      180.000000        0.277053         2
        48        49        44        50     9        0.000000        0.656419         3
        48        49        44        50     9      180.000000        0.041721         4
        48        49        44        51     9        0.000000       -0.040727         1
        48        49        44        51     9      180.000000        0.277053         2
        48        49        44        51     9        0.000000        0.656419         3
        48        49        44        51     9      180.000000        0.041721         4
        48        49        58        59     9        0.000000        0.168591         1
        48        49        58        59     9      180.000000        1.159347         2
        48        49        58        59     9        0.000000        0.633146         3
        48        49        58        59     9      180.000000        0.056192         4
        48        49        58        60     9        0.000000        0.168591         1
        48        49        58        60     9      180.000000        1.159347         2
        48        49        58        60     9        0.000000        0.633146         3
        48        49        58        60     9      180.000000        0.056192         4
        48        49        58        61     9        0.000000       -1.445645         1
        48        49        58        61     9      180.000000       -4.265065         2
        48        49        58        61     9        0.000000        0.782480         3
        48        49        58        61     9      180.000000       -1.199795         4
        49        44        45        52     9        0.000000       -0.003321         1
        49        44        45        52     9      180.000000        0.004886         2
        49        44        45        52     9        0.000000        0.128346         3
        49        44        45        52     9      180.000000       -0.039311         4
        49        44        45        53     9        0.000000       -0.003321         1
        49        44        45        53     9      180.000000        0.004886         2
        49        44        45        53     9        0.000000        0.128346         3
        49        44        45        53     9      180.000000       -0.039311         4
        49        48        47        54     9        0.000000       -0.003321         1
        49        48        47        54     9      180.000000        0.004886         2
        49        48        47        54     9        0.000000        0.128346         3
        49        48        47        54     9      180.000000       -0.039311         4
        49        48        47        55     9        0.000000       -0.003321         1
        49        48        47        55     9      180.000000        0.004886         2
        49        48        47        55     9        0.000000        0.128346         3
        49        48        47        55     9      180.000000       -0.039311         4
        49        58        61        62     9        0.000000        0.154145         1
        49        58        61        62     9      180.000000       -0.008448         2
        49        58        61        62     9        0.000000        0.321066         3
        49        58        61        62     9      180.000000        0.018236         4
        49        58        61        63     9        0.000000        0.154145         1
        49        58        61        63     9      180.000000       -0.008448         2
        49        58        61        63     9        0.000000        0.321066         3
        49        58        61        63     9      180.000000        0.018236         4
        49        58        61        64     9        0.000000        0.154145         1
        49        58        61        64     9      180.000000       -0.008448         2
        49        58        61        64     9        0.000000        0.321066         3
        49        58        61        64     9      180.000000        0.018236         4
        50        44        45        52     9        0.000000        0.040915         1
        50        44        45        52     9      180.000000        0.009338         2
        50        44        45        52     9        0.000000        0.210329         3
        50        44        45        52     9      180.000000        0.018760         4
        50        44        45        53     9        0.000000        0.040915         1
        50        44        45        53     9      180.000000        0.009338         2
        50        44        45        53     9        0.000000        0.210329         3
        50        44        45        53     9      180.000000        0.018760         4
        50        44        49        58     9        0.000000        0.106697         1
        50        44        49        58     9      180.000000        0.079024         2
        50        44        49        58     9        0.000000        0.198055         3
        50        44        49        58     9      180.000000        0.028948         4
        51        44        45        52     9        0.000000        0.040915         1
        51        44        45        52     9      180.000000        0.009338         2
        51        44        45        52     9        0.000000        0.210329         3
        51        44        45        52     9      180.000000        0.018760         4
        51        44        45        53     9        0.000000        0.040915         1
        51        44        45        53     9      180.000000        0.009338         2
        51        44        45        53     9        0.000000        0.210329         3
        51        44        45        53     9      180.000000        0.018760         4
        51        44        49        58     9        0.000000        0.106697         1
        51        44        49        58     9      180.000000        0.079024         2
        51        44        49        58     9        0.000000        0.198055         3
        51        44        49        58     9      180.000000        0.028948         4
        54        47        48        56     9        0.000000        0.040915         1
        54        47        48        56     9      180.000000        0.009338         2
        54        47        48        56     9        0.000000        0.210329         3
        54        47        48        56     9      180.000000        0.018760         4
        54        47        48        57     9        0.000000        0.040915         1
        54        47        48        57     9      180.000000        0.009338         2
        54        47        48        57     9        0.000000        0.210329         3
        54        47        48        57     9      180.000000        0.018760         4
        55        47        48        56     9        0.000000        0.040915         1
        55        47        48        56     9      180.000000        0.009338         2
        55        47        48        56     9        0.000000        0.210329         3
        55        47        48        56     9      180.000000        0.018760         4
        55        47        48        57     9        0.000000        0.040915         1
        55        47        48        57     9      180.000000        0.009338         2
        55        47        48        57     9        0.000000        0.210329         3
        55        47        48        57     9      180.000000        0.018760         4
        56        48        49        58     9        0.000000        0.106697         1
        56        48        49        58     9      180.000000        0.079024         2
        56        48        49        58     9        0.000000        0.198055         3
        56        48        49        58     9      180.000000        0.028948         4
        57        48        49        58     9        0.000000        0.106697         1
        57        48        49        58     9      180.000000        0.079024         2
        57        48        49        58     9        0.000000        0.198055         3
        57        48        49        58     9      180.000000        0.028948         4
        59        58        61        62     9        0.000000       -0.002844         1
        59        58        61        62     9      180.000000       -0.045945         2
        59        58        61        62     9        0.000000        0.384502         3
        59        58        61        62     9      180.000000        0.023802         4
        59        58        61        63     9        0.000000       -0.002844         1
        59        58        61        63     9      180.000000       -0.045945         2
        59        58        61        63     9        0.000000        0.384502         3
        59        58        61        63     9      180.000000        0.023802         4
        59        58        61        64     9        0.000000       -0.002844         1
        59        58        61        64     9      180.000000       -0.045945         2
        59        58        61        64     9        0.000000        0.384502         3
        59        58        61        64     9      180.000000        0.023802         4
        60        58        61        62     9        0.000000       -0.002844         1
        60        58        61        62     9      180.000000       -0.045945         2
        60        58        61        62     9        0.000000        0.384502         3
        60        58        61        62     9      180.000000        0.023802         4
        60        58        61        63     9        0.000000       -0.002844         1
        60        58        61        63     9      180.000000       -0.045945         2
        60        58        61        63     9        0.000000        0.384502         3
        60        58        61        63     9      180.000000        0.023802         4
        60        58        61        64     9        0.000000       -0.002844         1
        60        58        61        64     9      180.000000       -0.045945         2
        60        58        61        64     9        0.000000        0.384502         3
        60        58        61        64     9      180.000000        0.023802         4

[ dihedrals ] ; impropers
;       ai        aj        ak        al funct           phase               k        pn
         7        18        24        25     4      180.000000       18.579847         2
         7        24        25        18     4      180.000000       18.579847         2
         7        25        18        24     4      180.000000       18.579847         2
         9        23        26        27     4      180.000000       27.893333         2
         9        26        27        23     4      180.000000       27.893333         2
         9        27        23        26     4      180.000000       27.893333         2
        12        11        18        31     4      180.000000        2.030582         2
        12        18        31        11     4      180.000000        2.030582         2
        12        31        11        18     4      180.000000        2.030582         2
        13         5        14        21     4      180.000000        0.457750         2
        13        14        21         5     4      180.000000        0.457750         2
        13        21         5        14     4      180.000000        0.457750         2
        15        14        19        29     4      180.000000        1.019581         2
        15        19        29        14     4      180.000000        1.019581         2
        15        29        14        19     4      180.000000        1.019581         2
        16        11        25        26     4      180.000000       13.078791         2
        16        25        26        11     4      180.000000       13.078791         2
        16        26        11        25     4      180.000000       13.078791         2
        17        11        23        32     4      180.000000       13.813436         2
        17        23        32        11     4      180.000000       13.813436         2
        17        32        11        23     4      180.000000       13.813436         2

[ pairs ]
;       ai        aj funct
         1         3     1
         1         9     1
         1        39     1
         1        40     1
         1        43     1
         2         4     1
         2        27     1
         2        37     1
         2        38     1
         2        41     1
         3        27     1
         3        35     1
         3        36     1
         3        41     1
         4         9     1
         4        33     1
         4        34     1
         4        43     1
         5        15     1
         5        22     1
         5        28     1
         6        10     1
         6        33     1
         6        34     1
         6        39     1
         6        40     1
         7        11     1
         7        19     1
         7        26     1
         7        31     1
         7        42     1
         7        45     1
         7        47     1
         8        14     1
         8        18     1
         8        21     1
         8        29     1
         9        11     1
         9        25     1
         9        32     1
         9        41     1
        10        23     1
        10        26     1
        10        35     1
        10        36     1
        10        37     1
        10        38     1
        11        22     1
        11        46     1
        12        19     1
        12        23     1
        12        24     1
        12        25     1
        12        26     1
        12        32     1
        13        19     1
        13        20     1
        13        29     1
        14        22     1
        14        30     1
        15        18     1
        15        20     1
        15        21     1
        16        18     1
        16        23     1
        16        24     1
        16        27     1
        16        31     1
        16        32     1
        16        42     1
        16        45     1
        16        47     1
        17        18     1
        17        25     1
        17        26     1
        17        27     1
        17        31     1
        18        46     1
        19        28     1
        19        30     1
        20        22     1
        20        30     1
        21        28     1
        21        30     1
        22        24     1
        22        25     1
        22        29     1
        22        31     1
        23        43     1
        24        46     1
        25        44     1
        25        48     1
        25        52     1
        25        53     1
        25        54     1
        25        55     1
        26        43     1
        26        46     1
        27        33     1
        27        34     1
        27        39     1
        27        40     1
        28        29     1
        33        35     1
        33        36     1
        33        41     1
        34        35     1
        34        36     1
        34        41     1
        37        39     1
        37        40     1
        38        39     1
        38        40     1
        39        41     1
        40        41     1
        41        43     1
        42        44     1
        42        48     1
        42        52     1
        42        53     1
        42        54     1
        42        55     1
        44        47     1
        44        56     1
        44        57     1
        44        59     1
        44        60     1
        44        61     1
        45        48     1
        45        54     1
        45        55     1
        45        58     1
        46        49     1
        46        50     1
        46        51     1
        46        56     1
        46        57     1
        47        52     1
        47        53     1
        47        58     1
        48        50     1
        48        51     1
        48        59     1
        48        60     1
        48        61     1
        49        52     1
        49        53     1
        49        54     1
        49        55     1
        49        62     1
        49        63     1
        49        64     1
        50        52     1
        50        53     1
        50        58     1
        51        52     1
        51        53     1
        51        58     1
        54        56     1
        54        57     1
        55        56     1
        55        57     1
        56        58     1
        57        58     1
        59        62     1
        59        63     1
        59        64     1
        60        62     1
        60        63     1
        60        64     1
