; ITP file created by ByteFF-ML, 2026-02-21 08:21:49.948113

[ atomtypes ]
;name           bonded.type        at.num        mass        charge   ptype           sigma         epsilon
 c0bf                                   6      0.0000       0.00000       A     3.31468e-01     4.12718e-01
 c1bf                                   6      0.0000       0.00000       A     3.31426e-01     4.13955e-01
 c2bf                                   6      0.0000       0.00000       A     3.31482e-01     4.13404e-01
 c3bf                                   6      0.0000       0.00000       A     3.31501e-01     4.15693e-01
 c4bf                                   6      0.0000       0.00000       A     3.39889e-01     4.49217e-01
 c5bf                                   6      0.0000       0.00000       A     3.31327e-01     4.13299e-01
 c6bf                                   6      0.0000       0.00000       A     3.31646e-01     4.12777e-01
 c7bf                                   6      0.0000       0.00000       A     3.31488e-01     4.13497e-01
 c8bf                                   6      0.0000       0.00000       A     3.31494e-01     4.12507e-01
 c9bf                                   6      0.0000       0.00000       A     3.31504e-01     4.12314e-01
 c10bf                                  6      0.0000       0.00000       A     3.31395e-01     4.13486e-01
 c11bf                                  6      0.0000       0.00000       A     3.31273e-01     4.14091e-01
 c12bf                                  6      0.0000       0.00000       A     3.31255e-01     4.17977e-01
 c13bf                                  6      0.0000       0.00000       A     3.31474e-01     4.12750e-01
 c14bf                                  6      0.0000       0.00000       A     3.39751e-01     4.51327e-01
 f15bf                                  9      0.0000       0.00000       A     3.03295e-01     3.47905e-01
 f16bf                                  9      0.0000       0.00000       A     3.03414e-01     3.47611e-01
 o17bf                                  8      0.0000       0.00000       A     3.16224e-01     3.10258e-01
 n18bf                                  7      0.0000       0.00000       A     3.38471e-01     3.93104e-01
 o19bf                                  8      0.0000       0.00000       A     3.04735e-01     6.10225e-01
 n20bf                                  7      0.0000       0.00000       A     3.18016e-01     6.83025e-01
 n21bf                                  7      0.0000       0.00000       A     3.38378e-01     3.92430e-01
 n22bf                                  7      0.0000       0.00000       A     3.27719e-01     6.51365e-01
 h23bf                                  1      0.0000       0.00000       A     2.62547e-01     6.71514e-02
 h24bf                                  1      0.0000       0.00000       A     2.62373e-01     6.68945e-02
 h25bf                                  1      0.0000       0.00000       A     2.62520e-01     6.71642e-02
 h26bf                                  1      0.0000       0.00000       A     2.62452e-01     6.74148e-02
 h27bf                                  1      0.0000       0.00000       A     2.53572e-01     6.74323e-02
 h28bf                                  1      0.0000       0.00000       A     2.41951e-01     8.70911e-02
 h29bf                                  1      0.0000       0.00000       A     2.42068e-01     8.71789e-02
 h30bf                                  1      0.0000       0.00000       A     2.42068e-01     8.71789e-02
 h31bf                                  1      0.0000       0.00000       A     2.42068e-01     8.71789e-02
 h32bf                                  1      0.0000       0.00000       A     1.10484e-01     4.23134e-02
 h33bf                                  1      0.0000       0.00000       A     2.41951e-01     8.70911e-02
 h34bf                                  1      0.0000       0.00000       A     2.41951e-01     8.70911e-02

[ moleculetype ]
;name             nrexcl
 2v                    3

[ atoms ]
;       nr            type      resi   res      atom      cgnr      charge          mass ; qtot
         1            c0bf         1   UNL        c0         1    -0.17396       12.0110 ; qtot   -0.174
         2            c1bf         1   UNL        c1         2     0.56377       12.0110 ; qtot    0.390
         3            c2bf         1   UNL        c2         3     0.17941       12.0110 ; qtot    0.569
         4            c3bf         1   UNL        c3         4     0.40167       12.0110 ; qtot    0.971
         5            c4bf         1   UNL        c4         5     0.20762       12.0110 ; qtot    1.179
         6            c5bf         1   UNL        c5         6    -0.27925       12.0110 ; qtot    0.899
         7            c6bf         1   UNL        c6         7    -0.09552       12.0110 ; qtot    0.804
         8            c7bf         1   UNL        c7         8     0.18085       12.0110 ; qtot    0.985
         9            c8bf         1   UNL        c8         9    -0.14500       12.0110 ; qtot    0.840
        10            c9bf         1   UNL        c9        10    -0.07757       12.0110 ; qtot    0.762
        11           c10bf         1   UNL       c10        11     0.30699       12.0110 ; qtot    1.069
        12           c11bf         1   UNL       c11        12     0.20422       12.0110 ; qtot    1.273
        13           c12bf         1   UNL       c12        13     0.00731       12.0110 ; qtot    1.281
        14           c13bf         1   UNL       c13        14     0.05605       12.0110 ; qtot    1.337
        15           c14bf         1   UNL       c14        15     0.08123       12.0110 ; qtot    1.418
        16           f15bf         1   UNL       f15        16    -0.16069       18.9980 ; qtot    1.257
        17           f16bf         1   UNL       f16        17    -0.17407       18.9980 ; qtot    1.083
        18           o17bf         1   UNL       o17        18    -0.21226       15.9990 ; qtot    0.871
        19           n18bf         1   UNL       n18        19    -0.25205       14.0070 ; qtot    0.619
        20           o19bf         1   UNL       o19        20    -0.53096       15.9990 ; qtot    0.088
        21           n20bf         1   UNL       n20        21    -0.36663       14.0070 ; qtot   -0.279
        22           n21bf         1   UNL       n21        22    -0.30881       14.0070 ; qtot   -0.588
        23           n22bf         1   UNL       n22        23    -0.89544       14.0070 ; qtot   -1.483
        24           h23bf         1   UNL       h23        24     0.14202        1.0080 ; qtot   -1.341
        25           h24bf         1   UNL       h24        25     0.14072        1.0080 ; qtot   -1.200
        26           h25bf         1   UNL       h25        26     0.15735        1.0080 ; qtot   -1.043
        27           h26bf         1   UNL       h26        27     0.20692        1.0080 ; qtot   -0.836
        28           h27bf         1   UNL       h27        28     0.02838        1.0080 ; qtot   -0.808
        29           h28bf         1   UNL       h28        29     0.04429        1.0080 ; qtot   -0.763
        30           h29bf         1   UNL       h29        30     0.06198        1.0080 ; qtot   -0.701
        31           h30bf         1   UNL       h30        31     0.06198        1.0080 ; qtot   -0.639
        32           h31bf         1   UNL       h31        32     0.06198        1.0080 ; qtot   -0.577
        33           h32bf         1   UNL       h32        33     0.48888        1.0080 ; qtot   -0.089
        34           h33bf         1   UNL       h33        34     0.04429        1.0080 ; qtot   -0.044
        35           h34bf         1   UNL       h34        35     0.04430        1.0080 ; qtot   -0.000

[ bonds ]
;       ai        aj funct               r               k
         1         3     1        0.139038   316524.477588
         1         8     1        0.139274   306854.774512
         1        26     1        0.108387   329224.337451
         2        13     1        0.147699   176240.708545
         2        20     1        0.123181   585119.222852
         2        21     1        0.141002   186312.748779
         3        14     1        0.139881   278838.982227
         3        16     1        0.134995   302917.054395
         4        19     1        0.136138   237313.369580
         4        22     1        0.134629   277529.183887
         4        23     1        0.135672   341358.090674
         5        23     1        0.145608   224379.921777
         5        29     1        0.109334   300299.526221
         5        34     1        0.109334   300299.526221
         5        35     1        0.109334   300299.526221
         6         7     1        0.143064   268512.132715
         6        11     1        0.141899   250529.845166
         6        12     1        0.140364   289463.211377
         7        13     1        0.135694   413732.097314
         7        27     1        0.108546   321757.107910
         8         9     1        0.139128   306394.876709
         8        17     1        0.135607   292150.787842
         9        10     1        0.139766   317517.462549
         9        24     1        0.108444   326597.692529
        10        14     1        0.139462   301245.318604
        10        25     1        0.108442   325811.353857
        11        21     1        0.137734   269428.506348
        11        22     1        0.133600   326001.962842
        12        19     1        0.132451   376755.716406
        12        28     1        0.108990   309472.379297
        13        18     1        0.136853   261929.227734
        14        18     1        0.138211   245996.574121
        15        21     1        0.147084   183535.677515
        15        30     1        0.108968   310419.857129
        15        31     1        0.108968   310419.857129
        15        32     1        0.108968   310419.857129
        23        33     1        0.101025   426719.300732

[ angles ]
;       ai        aj        ak funct           theta             cth
         1         3        14     1      121.913330      589.890436
         1         3        16     1      119.021118      546.594438
         1         8         9     1      122.381203      586.088790
         1         8        17     1      118.423096      577.916724
         2        13         7     1      122.040298      724.098161
         2        13        18     1      116.128212      320.885558
         2        21        11     1      122.920105      568.423686
         2        21        15     1      117.580322      599.849206
         3         1         8     1      117.606956      745.241738
         3         1        26     1      120.750504      415.603591
         3        14        10     1      118.750526      612.867003
         3        14        18     1      120.038025      362.403759
         4        19        12     1      115.757729      923.639260
         4        22        11     1      116.363281      742.007910
         4        23         5     1      123.534866      465.025750
         4        23        33     1      114.998840      480.378405
         5        23        33     1      119.453995      402.188692
         6         7        13     1      119.936729      510.649839
         6         7        27     1      120.067749      410.568215
         6        11        21     1      119.362831      603.865172
         6        11        22     1      122.294556      735.977130
         6        12        19     1      123.630753      738.443312
         6        12        28     1      119.657028      407.706304
         7         6        11     1      119.795570      690.076793
         7         6        12     1      125.003014      442.828958
         7        13        18     1      121.720322      450.152427
         8         1        26     1      121.558578      415.206138
         8         9        10     1      118.578598      692.396968
         8         9        24     1      119.971153      420.856319
         9         8        17     1      119.175308      576.491051
         9        10        14     1      120.569313      694.362942
         9        10        25     1      120.676376      412.191418
        10         9        24     1      121.452782      418.521557
        10        14        18     1      120.941635      501.739750
        11         6        12     1      115.053856      847.730521
        11        21        15     1      119.135315      531.964866
        13         2        20     1      122.794418      308.084093
        13         2        21     1      115.680199      669.218849
        13         7        27     1      120.082497      430.961544
        13        18        14     1      118.724243      413.969822
        14         3        16     1      119.050255      408.388815
        14        10        25     1      118.790665      407.974539
        19         4        22     1      126.539452      639.449538
        19         4        23     1      116.505089      604.955798
        19        12        28     1      116.308495      439.918941
        20         2        21     1      121.284706      608.542038
        21        11        22     1      118.093178      539.323129
        21        15        30     1      109.003319      486.045664
        21        15        31     1      109.003319      486.045664
        21        15        32     1      109.003319      486.045664
        22         4        23     1      116.582413      545.923322
        23         5        29     1      110.185059      466.711710
        23         5        34     1      110.185059      466.711710
        23         5        35     1      110.185059      466.711710
        29         5        34     1      108.805565      347.556835
        29         5        35     1      108.805565      347.556835
        30        15        31     1      109.918961      341.457392
        30        15        32     1      109.918961      341.457392
        31        15        32     1      109.918961      341.457392
        34         5        35     1      108.805565      347.556835

[ dihedrals ] ; propers for gromacs 4.5 or higher, use funct 9
;       ai        aj        ak        al funct           phase               k        pn
         1         3        14        10     9        0.000000       -0.033769         1
         1         3        14        10     9      180.000000       15.070050         2
         1         3        14        10     9        0.000000       -0.822733         3
         1         3        14        10     9      180.000000       -0.166007         4
         1         3        14        18     9        0.000000        0.213515         1
         1         3        14        18     9      180.000000       15.796953         2
         1         3        14        18     9        0.000000        0.046168         3
         1         3        14        18     9      180.000000       -0.230207         4
         1         8         9        10     9        0.000000       -0.084562         1
         1         8         9        10     9      180.000000       17.436868         2
         1         8         9        10     9        0.000000       -1.215052         3
         1         8         9        10     9      180.000000       -0.350359         4
         1         8         9        24     9        0.000000        0.222596         1
         1         8         9        24     9      180.000000       12.990701         2
         1         8         9        24     9        0.000000       -0.533192         3
         1         8         9        24     9      180.000000        0.123340         4
         2        13         7         6     9        0.000000       -0.265137         1
         2        13         7         6     9      180.000000       20.042194         2
         2        13         7         6     9        0.000000       -0.708806         3
         2        13         7         6     9      180.000000       -0.884190         4
         2        13         7        27     9        0.000000       -0.033528         1
         2        13         7        27     9      180.000000       15.197706         2
         2        13         7        27     9        0.000000       -0.108211         3
         2        13         7        27     9      180.000000        0.062165         4
         2        13        18        14     9        0.000000        1.516945         1
         2        13        18        14     9      180.000000        3.262531         2
         2        13        18        14     9        0.000000        1.468404         3
         2        13        18        14     9      180.000000       -0.331072         4
         2        21        11         6     9        0.000000       -0.766424         1
         2        21        11         6     9      180.000000        5.866930         2
         2        21        11         6     9        0.000000       -0.482679         3
         2        21        11         6     9      180.000000        0.187701         4
         2        21        11        22     9        0.000000        0.433369         1
         2        21        11        22     9      180.000000        7.696213         2
         2        21        11        22     9        0.000000        0.410446         3
         2        21        11        22     9      180.000000       -0.246144         4
         2        21        15        30     9        0.000000        0.022638         1
         2        21        15        30     9      180.000000        0.065321         2
         2        21        15        30     9        0.000000       -0.063790         3
         2        21        15        30     9      180.000000        0.031607         4
         2        21        15        31     9        0.000000        0.022638         1
         2        21        15        31     9      180.000000        0.065321         2
         2        21        15        31     9        0.000000       -0.063790         3
         2        21        15        31     9      180.000000        0.031607         4
         2        21        15        32     9        0.000000        0.022638         1
         2        21        15        32     9      180.000000        0.065321         2
         2        21        15        32     9        0.000000       -0.063790         3
         2        21        15        32     9      180.000000        0.031607         4
         3         1         8         9     9        0.000000       -0.101773         1
         3         1         8         9     9      180.000000       17.261374         2
         3         1         8         9     9        0.000000       -1.245547         3
         3         1         8         9     9      180.000000       -0.369105         4
         3         1         8        17     9        0.000000        0.202544         1
         3         1         8        17     9      180.000000       22.811181         2
         3         1         8        17     9        0.000000        0.550755         3
         3         1         8        17     9      180.000000       -0.701551         4
         3        14        10         9     9        0.000000       -0.019541         1
         3        14        10         9     9      180.000000       17.479613         2
         3        14        10         9     9        0.000000       -1.174083         3
         3        14        10         9     9      180.000000       -0.342804         4
         3        14        10        25     9        0.000000        0.103760         1
         3        14        10        25     9      180.000000       12.825624         2
         3        14        10        25     9        0.000000       -0.551225         3
         3        14        10        25     9      180.000000        0.193193         4
         3        14        18        13     9        0.000000        0.381500         1
         3        14        18        13     9      180.000000        2.030263         2
         3        14        18        13     9        0.000000        0.322851         3
         3        14        18        13     9      180.000000       -0.088607         4
         4        19        12         6     9        0.000000       -0.258562         1
         4        19        12         6     9      180.000000       20.756064         2
         4        19        12         6     9        0.000000       -1.394879         3
         4        19        12         6     9      180.000000       -0.192364         4
         4        19        12        28     9        0.000000        0.276871         1
         4        19        12        28     9      180.000000       18.966098         2
         4        19        12        28     9        0.000000       -0.104907         3
         4        19        12        28     9      180.000000       -0.162698         4
         4        22        11         6     9        0.000000       -0.104771         1
         4        22        11         6     9      180.000000       12.635132         2
         4        22        11         6     9        0.000000       -0.529418         3
         4        22        11         6     9      180.000000       -0.050454         4
         4        22        11        21     9        0.000000       -0.102023         1
         4        22        11        21     9      180.000000       16.575252         2
         4        22        11        21     9        0.000000        0.470770         3
         4        22        11        21     9      180.000000       -0.414073         4
         4        23         5        29     9        0.000000        0.041296         1
         4        23         5        29     9      180.000000        0.020594         2
         4        23         5        29     9        0.000000        0.265148         3
         4        23         5        29     9      180.000000       -0.000584         4
         4        23         5        34     9        0.000000        0.041296         1
         4        23         5        34     9      180.000000        0.020594         2
         4        23         5        34     9        0.000000        0.265148         3
         4        23         5        34     9      180.000000       -0.000584         4
         4        23         5        35     9        0.000000        0.041296         1
         4        23         5        35     9      180.000000        0.020594         2
         4        23         5        35     9        0.000000        0.265148         3
         4        23         5        35     9      180.000000       -0.000584         4
         5        23         4        19     9        0.000000        0.185059         1
         5        23         4        19     9      180.000000        8.584747         2
         5        23         4        19     9        0.000000        0.523147         3
         5        23         4        19     9      180.000000       -0.664651         4
         5        23         4        22     9        0.000000       -0.202357         1
         5        23         4        22     9      180.000000        8.879978         2
         5        23         4        22     9        0.000000       -0.007893         3
         5        23         4        22     9      180.000000       -0.462991         4
         6         7        13        18     9        0.000000       -0.497504         1
         6         7        13        18     9      180.000000       27.319683         2
         6         7        13        18     9        0.000000       -0.115449         3
         6         7        13        18     9      180.000000       -1.532204         4
         6        11        21        15     9        0.000000       -0.050396         1
         6        11        21        15     9      180.000000        8.743514         2
         6        11        21        15     9        0.000000       -0.084402         3
         6        11        21        15     9      180.000000        0.163000         4
         7         6        11        21     9        0.000000        0.271751         1
         7         6        11        21     9      180.000000       13.019172         2
         7         6        11        21     9        0.000000       -0.097224         3
         7         6        11        21     9      180.000000       -0.452989         4
         7         6        11        22     9        0.000000        0.200159         1
         7         6        11        22     9      180.000000       12.092214         2
         7         6        11        22     9        0.000000        0.133621         3
         7         6        11        22     9      180.000000       -0.298266         4
         7         6        12        19     9        0.000000        0.053331         1
         7         6        12        19     9      180.000000       13.820259         2
         7         6        12        19     9        0.000000        0.105534         3
         7         6        12        19     9      180.000000       -0.488955         4
         7         6        12        28     9        0.000000        0.127456         1
         7         6        12        28     9      180.000000       12.064266         2
         7         6        12        28     9        0.000000        0.196633         3
         7         6        12        28     9      180.000000       -0.111756         4
         7        13         2        20     9        0.000000        0.484356         1
         7        13         2        20     9      180.000000        5.076078         2
         7        13         2        20     9        0.000000       -0.049823         3
         7        13         2        20     9      180.000000       -0.379185         4
         7        13         2        21     9        0.000000        1.749896         1
         7        13         2        21     9      180.000000        2.060494         2
         7        13         2        21     9        0.000000        0.186700         3
         7        13         2        21     9      180.000000        0.011112         4
         7        13        18        14     9        0.000000       -0.338245         1
         7        13        18        14     9      180.000000        4.737598         2
         7        13        18        14     9        0.000000       -1.572261         3
         7        13        18        14     9      180.000000        0.139854         4
         8         1         3        14     9        0.000000       -0.159544         1
         8         1         3        14     9      180.000000       17.441704         2
         8         1         3        14     9        0.000000       -1.253452         3
         8         1         3        14     9      180.000000       -0.342164         4
         8         1         3        16     9        0.000000        0.535263         1
         8         1         3        16     9      180.000000       22.924715         2
         8         1         3        16     9        0.000000        0.562820         3
         8         1         3        16     9      180.000000       -0.548398         4
         8         9        10        14     9        0.000000       -0.193831         1
         8         9        10        14     9      180.000000       18.718306         2
         8         9        10        14     9        0.000000       -1.470902         3
         8         9        10        14     9      180.000000       -0.444338         4
         8         9        10        25     9        0.000000        0.152983         1
         8         9        10        25     9      180.000000       14.549564         2
         8         9        10        25     9        0.000000       -0.624238         3
         8         9        10        25     9      180.000000        0.081753         4
         9         8         1        26     9        0.000000        0.181711         1
         9         8         1        26     9      180.000000       12.249439         2
         9         8         1        26     9        0.000000       -0.437418         3
         9         8         1        26     9      180.000000        0.175565         4
         9        10        14        18     9        0.000000        0.435183         1
         9        10        14        18     9      180.000000       18.963855         2
         9        10        14        18     9        0.000000        0.317361         3
         9        10        14        18     9      180.000000       -0.395936         4
        10         9         8        17     9        0.000000        0.505280         1
        10         9         8        17     9      180.000000       23.564142         2
        10         9         8        17     9        0.000000        0.449858         3
        10         9         8        17     9      180.000000       -0.661252         4
        10        14         3        16     9        0.000000        0.586984         1
        10        14         3        16     9      180.000000       18.000233         2
        10        14         3        16     9        0.000000        0.390466         3
        10        14         3        16     9      180.000000       -0.347261         4
        10        14        18        13     9        0.000000       -0.612805         1
        10        14        18        13     9      180.000000        3.389636         2
        10        14        18        13     9        0.000000       -0.690547         3
        10        14        18        13     9      180.000000        0.142857         4
        11         6         7        13     9        0.000000       -0.826772         1
        11         6         7        13     9      180.000000       11.934387         2
        11         6         7        13     9        0.000000       -1.632779         3
        11         6         7        13     9      180.000000       -0.270890         4
        11         6         7        27     9        0.000000        0.189053         1
        11         6         7        27     9      180.000000        8.259443         2
        11         6         7        27     9        0.000000       -0.351834         3
        11         6         7        27     9      180.000000       -0.145856         4
        11         6        12        19     9        0.000000        0.133659         1
        11         6        12        19     9      180.000000       14.368576         2
        11         6        12        19     9        0.000000       -0.232738         3
        11         6        12        19     9      180.000000       -0.391895         4
        11         6        12        28     9        0.000000        0.230649         1
        11         6        12        28     9      180.000000       12.133660         2
        11         6        12        28     9        0.000000       -0.228558         3
        11         6        12        28     9      180.000000       -0.225536         4
        11        21         2        13     9        0.000000       -1.663257         1
        11        21         2        13     9      180.000000        4.444698         2
        11        21         2        13     9        0.000000        0.003079         3
        11        21         2        13     9      180.000000        0.128985         4
        11        21         2        20     9        0.000000        0.404651         1
        11        21         2        20     9      180.000000       10.253576         2
        11        21         2        20     9        0.000000       -0.624800         3
        11        21         2        20     9      180.000000       -0.263647         4
        11        21        15        30     9        0.000000       -0.080948         1
        11        21        15        30     9      180.000000        0.032923         2
        11        21        15        30     9        0.000000       -0.114814         3
        11        21        15        30     9      180.000000        0.048772         4
        11        21        15        31     9        0.000000       -0.080948         1
        11        21        15        31     9      180.000000        0.032923         2
        11        21        15        31     9        0.000000       -0.114814         3
        11        21        15        31     9      180.000000        0.048772         4
        11        21        15        32     9        0.000000       -0.080948         1
        11        21        15        32     9      180.000000        0.032923         2
        11        21        15        32     9        0.000000       -0.114814         3
        11        21        15        32     9      180.000000        0.048772         4
        11        22         4        19     9        0.000000        0.712662         1
        11        22         4        19     9      180.000000        9.818089         2
        11        22         4        19     9        0.000000        0.647869         3
        11        22         4        19     9      180.000000       -0.361427         4
        11        22         4        23     9        0.000000        0.823943         1
        11        22         4        23     9      180.000000       15.892749         2
        11        22         4        23     9        0.000000        0.310968         3
        11        22         4        23     9      180.000000       -0.998239         4
        12         6         7        13     9        0.000000       -0.634575         1
        12         6         7        13     9      180.000000        8.759010         2
        12         6         7        13     9        0.000000       -0.845770         3
        12         6         7        13     9      180.000000        0.024155         4
        12         6         7        27     9        0.000000       -0.791132         1
        12         6         7        27     9      180.000000        4.791638         2
        12         6         7        27     9        0.000000       -0.385138         3
        12         6         7        27     9      180.000000       -0.055927         4
        12         6        11        21     9        0.000000       -0.337590         1
        12         6        11        21     9      180.000000       11.800441         2
        12         6        11        21     9        0.000000       -0.308271         3
        12         6        11        21     9      180.000000       -0.346716         4
        12         6        11        22     9        0.000000        0.052573         1
        12         6        11        22     9      180.000000       11.051185         2
        12         6        11        22     9        0.000000        0.171013         3
        12         6        11        22     9      180.000000       -0.266015         4
        12        19         4        22     9        0.000000        0.539721         1
        12        19         4        22     9      180.000000        9.371408         2
        12        19         4        22     9        0.000000        0.740073         3
        12        19         4        22     9      180.000000       -0.456940         4
        12        19         4        23     9        0.000000        1.165513         1
        12        19         4        23     9      180.000000       14.845903         2
        12        19         4        23     9        0.000000        0.432390         3
        12        19         4        23     9      180.000000       -0.816865         4
        13         2        21        15     9        0.000000        0.463790         1
        13         2        21        15     9      180.000000        9.121669         2
        13         2        21        15     9        0.000000        0.308329         3
        13         2        21        15     9      180.000000        0.001686         4
        14         3         1        26     9        0.000000        0.204291         1
        14         3         1        26     9      180.000000       12.330683         2
        14         3         1        26     9        0.000000       -0.429751         3
        14         3         1        26     9      180.000000        0.180492         4
        14        10         9        24     9        0.000000        0.085472         1
        14        10         9        24     9      180.000000       14.240723         2
        14        10         9        24     9        0.000000       -0.502524         3
        14        10         9        24     9      180.000000        0.093111         4
        15        21         2        20     9        0.000000       -0.626933         1
        15        21         2        20     9      180.000000       11.384755         2
        15        21         2        20     9        0.000000       -1.173840         3
        15        21         2        20     9      180.000000        0.509300         4
        15        21        11        22     9        0.000000       -1.056719         1
        15        21        11        22     9      180.000000        9.970036         2
        15        21        11        22     9        0.000000       -0.164694         3
        15        21        11        22     9      180.000000        0.219444         4
        16         3         1        26     9        0.000000        0.356407         1
        16         3         1        26     9      180.000000       15.755417         2
        16         3         1        26     9        0.000000        0.173168         3
        16         3         1        26     9      180.000000        0.272104         4
        16         3        14        18     9        0.000000       -0.107429         1
        16         3        14        18     9      180.000000       20.900297         2
        16         3        14        18     9        0.000000        0.246361         3
        16         3        14        18     9      180.000000       -0.890880         4
        17         8         1        26     9        0.000000        0.302040         1
        17         8         1        26     9      180.000000       14.938911         2
        17         8         1        26     9        0.000000        0.256433         3
        17         8         1        26     9      180.000000        0.230067         4
        17         8         9        24     9        0.000000        0.256909         1
        17         8         9        24     9      180.000000       16.033530         2
        17         8         9        24     9        0.000000        0.305426         3
        17         8         9        24     9      180.000000        0.139760         4
        18        13         2        20     9        0.000000       -1.917022         1
        18        13         2        20     9      180.000000       10.924891         2
        18        13         2        20     9        0.000000       -0.430672         3
        18        13         2        20     9      180.000000       -0.290223         4
        18        13         2        21     9        0.000000        0.111386         1
        18        13         2        21     9      180.000000        7.207315         2
        18        13         2        21     9        0.000000        0.351182         3
        18        13         2        21     9      180.000000        0.012035         4
        18        13         7        27     9        0.000000        0.155001         1
        18        13         7        27     9      180.000000       19.751095         2
        18        13         7        27     9        0.000000        0.160795         3
        18        13         7        27     9      180.000000       -0.191934         4
        18        14        10        25     9        0.000000        0.172923         1
        18        14        10        25     9      180.000000       14.279827         2
        18        14        10        25     9        0.000000        0.166673         3
        18        14        10        25     9      180.000000        0.327322         4
        19         4        23        33     9        0.000000       -0.699938         1
        19         4        23        33     9      180.000000       10.195110         2
        19         4        23        33     9        0.000000       -0.397988         3
        19         4        23        33     9      180.000000       -0.445215         4
        22         4        23        33     9        0.000000        0.618052         1
        22         4        23        33     9      180.000000       10.225196         2
        22         4        23        33     9        0.000000       -0.534220         3
        22         4        23        33     9      180.000000       -0.380903         4
        24         9        10        25     9        0.000000       -0.156577         1
        24         9        10        25     9      180.000000       11.949669         2
        24         9        10        25     9        0.000000       -0.717197         3
        24         9        10        25     9      180.000000        0.181692         4
        29         5        23        33     9        0.000000       -0.105566         1
        29         5        23        33     9      180.000000        0.163855         2
        29         5        23        33     9        0.000000        0.585877         3
        29         5        23        33     9      180.000000       -0.017567         4
        33        23         5        34     9        0.000000       -0.105566         1
        33        23         5        34     9      180.000000        0.163855         2
        33        23         5        34     9        0.000000        0.585877         3
        33        23         5        34     9      180.000000       -0.017567         4
        33        23         5        35     9        0.000000       -0.105566         1
        33        23         5        35     9      180.000000        0.163855         2
        33        23         5        35     9        0.000000        0.585877         3
        33        23         5        35     9      180.000000       -0.017567         4

[ dihedrals ] ; impropers
;       ai        aj        ak        al funct           phase               k        pn
         2        13        20        21     4      180.000000       20.883039         2
         2        20        21        13     4      180.000000       20.883039         2
         2        21        13        20     4      180.000000       20.883039         2
         4        19        22        23     4      180.000000       27.893333         2
         4        22        23        19     4      180.000000       27.893333         2
         4        23        19        22     4      180.000000       27.893333         2
         7         6        13        27     4      180.000000        2.344824         2
         7        13        27         6     4      180.000000        2.344824         2
         7        27         6        13     4      180.000000        2.344824         2
         8         1         9        17     4      180.000000        0.457749         2
         8         9        17         1     4      180.000000        0.457749         2
         8        17         1         9     4      180.000000        0.457749         2
        10         9        14        25     4      180.000000        1.019580         2
        10        14        25         9     4      180.000000        1.019580         2
        10        25         9        14     4      180.000000        1.019580         2
        11         6        21        22     4      180.000000       14.362336         2
        11        21        22         6     4      180.000000       14.362336         2
        11        22         6        21     4      180.000000       14.362336         2
        12         6        19        28     4      180.000000       13.695804         2
        12        19        28         6     4      180.000000       13.695804         2
        12        28         6        19     4      180.000000       13.695804         2

[ pairs ]
;       ai        aj funct
         1        10     1
         1        18     1
         1        24     1
         2         6     1
         2        14     1
         2        22     1
         2        27     1
         2        30     1
         2        31     1
         2        32     1
         3         9     1
         3        13     1
         3        17     1
         3        25     1
         4         6     1
         4        21     1
         4        28     1
         4        29     1
         4        34     1
         4        35     1
         5        19     1
         5        22     1
         6        15     1
         6        18     1
         7        14     1
         7        19     1
         7        20     1
         7        21     1
         7        22     1
         7        28     1
         8        14     1
         8        16     1
         8        25     1
         9        18     1
         9        26     1
        10        13     1
        10        16     1
        10        17     1
        11        13     1
        11        19     1
        11        20     1
        11        23     1
        11        27     1
        11        28     1
        11        30     1
        11        31     1
        11        32     1
        12        13     1
        12        21     1
        12        22     1
        12        23     1
        12        27     1
        13        15     1
        14        24     1
        14        26     1
        15        20     1
        15        22     1
        16        18     1
        16        26     1
        17        24     1
        17        26     1
        18        20     1
        18        21     1
        18        25     1
        18        27     1
        19        33     1
        22        33     1
        24        25     1
        29        33     1
        33        34     1
        33        35     1
