; ITP file created by ByteFF-ML, 2026-02-21 08:22:35.343191

[ atomtypes ]
;name           bonded.type        at.num        mass        charge   ptype           sigma         epsilon
 c0bf                                   6      0.0000       0.00000       A     3.31468e-01     4.12718e-01
 c1bf                                   6      0.0000       0.00000       A     3.31426e-01     4.13955e-01
 c2bf                                   6      0.0000       0.00000       A     3.31482e-01     4.13404e-01
 c3bf                                   6      0.0000       0.00000       A     3.31412e-01     4.13152e-01
 c4bf                                   6      0.0000       0.00000       A     3.31327e-01     4.13299e-01
 c5bf                                   6      0.0000       0.00000       A     3.31646e-01     4.12777e-01
 c6bf                                   6      0.0000       0.00000       A     3.31488e-01     4.13497e-01
 c7bf                                   6      0.0000       0.00000       A     3.31494e-01     4.12507e-01
 c8bf                                   6      0.0000       0.00000       A     3.31504e-01     4.12314e-01
 c9bf                                   6      0.0000       0.00000       A     3.31349e-01     4.13846e-01
 c10bf                                  6      0.0000       0.00000       A     3.31275e-01     4.14306e-01
 c11bf                                  6      0.0000       0.00000       A     3.31255e-01     4.17977e-01
 c12bf                                  6      0.0000       0.00000       A     3.31474e-01     4.12750e-01
 c13bf                                  6      0.0000       0.00000       A     3.39751e-01     4.51327e-01
 f14bf                                  9      0.0000       0.00000       A     3.03295e-01     3.47905e-01
 f15bf                                  9      0.0000       0.00000       A     3.03414e-01     3.47611e-01
 o16bf                                  8      0.0000       0.00000       A     3.16224e-01     3.10258e-01
 n17bf                                  7      0.0000       0.00000       A     3.38463e-01     3.93353e-01
 o18bf                                  8      0.0000       0.00000       A     3.04735e-01     6.10225e-01
 n19bf                                  7      0.0000       0.00000       A     3.18016e-01     6.83025e-01
 n20bf                                  7      0.0000       0.00000       A     3.38456e-01     3.92141e-01
 n21bf                                  7      0.0000       0.00000       A     3.28117e-01     6.48240e-01
 h22bf                                  1      0.0000       0.00000       A     2.62547e-01     6.71514e-02
 h23bf                                  1      0.0000       0.00000       A     2.62373e-01     6.68945e-02
 h24bf                                  1      0.0000       0.00000       A     2.62520e-01     6.71642e-02
 h25bf                                  1      0.0000       0.00000       A     2.62452e-01     6.74148e-02
 h26bf                                  1      0.0000       0.00000       A     2.53572e-01     6.74323e-02
 h27bf                                  1      0.0000       0.00000       A     2.42035e-01     8.77455e-02
 h28bf                                  1      0.0000       0.00000       A     2.42068e-01     8.71789e-02
 h29bf                                  1      0.0000       0.00000       A     2.42068e-01     8.71789e-02
 h30bf                                  1      0.0000       0.00000       A     2.42068e-01     8.71789e-02
 h31bf                                  1      0.0000       0.00000       A     1.10573e-01     4.31306e-02
 c32bf                                  6      0.0000       0.00000       A     3.39975e-01     4.53024e-01
 c33bf                                  6      0.0000       0.00000       A     3.39814e-01     4.49954e-01
 c34bf                                  6      0.0000       0.00000       A     3.39823e-01     4.51335e-01
 o35bf                                  8      0.0000       0.00000       A     3.15527e-01     3.04905e-01
 c36bf                                  6      0.0000       0.00000       A     3.39804e-01     4.49182e-01
 h37bf                                  1      0.0000       0.00000       A     2.60037e-01     8.68469e-02
 h38bf                                  1      0.0000       0.00000       A     2.60037e-01     8.68469e-02
 h39bf                                  1      0.0000       0.00000       A     2.42175e-01     8.76849e-02
 h40bf                                  1      0.0000       0.00000       A     2.42175e-01     8.76849e-02
 h41bf                                  1      0.0000       0.00000       A     2.42272e-01     8.74965e-02
 h42bf                                  1      0.0000       0.00000       A     2.42272e-01     8.74965e-02

[ moleculetype ]
;name             nrexcl
 2x                    3

[ atoms ]
;       nr            type      resi   res      atom      cgnr      charge          mass ; qtot
         1            c0bf         1   UNL        c0         1    -0.17396       12.0110 ; qtot   -0.174
         2            c1bf         1   UNL        c1         2     0.56377       12.0110 ; qtot    0.390
         3            c2bf         1   UNL        c2         3     0.17941       12.0110 ; qtot    0.569
         4            c3bf         1   UNL        c3         4     0.40953       12.0110 ; qtot    0.979
         5            c4bf         1   UNL        c4         5    -0.27616       12.0110 ; qtot    0.703
         6            c5bf         1   UNL        c5         6    -0.09552       12.0110 ; qtot    0.607
         7            c6bf         1   UNL        c6         7     0.18085       12.0110 ; qtot    0.788
         8            c7bf         1   UNL        c7         8    -0.14500       12.0110 ; qtot    0.643
         9            c8bf         1   UNL        c8         9    -0.07757       12.0110 ; qtot    0.565
        10            c9bf         1   UNL        c9        10     0.30701       12.0110 ; qtot    0.872
        11           c10bf         1   UNL       c10        11     0.20437       12.0110 ; qtot    1.077
        12           c11bf         1   UNL       c11        12     0.00731       12.0110 ; qtot    1.084
        13           c12bf         1   UNL       c12        13     0.05605       12.0110 ; qtot    1.140
        14           c13bf         1   UNL       c13        14     0.08123       12.0110 ; qtot    1.221
        15           f14bf         1   UNL       f14        15    -0.16069       18.9980 ; qtot    1.061
        16           f15bf         1   UNL       f15        16    -0.17407       18.9980 ; qtot    0.887
        17           o16bf         1   UNL       o16        17    -0.21226       15.9990 ; qtot    0.674
        18           n17bf         1   UNL       n17        18    -0.25032       14.0070 ; qtot    0.424
        19           o18bf         1   UNL       o18        19    -0.53096       15.9990 ; qtot   -0.107
        20           n19bf         1   UNL       n19        20    -0.36670       14.0070 ; qtot   -0.474
        21           n20bf         1   UNL       n20        21    -0.30513       14.0070 ; qtot   -0.779
        22           n21bf         1   UNL       n21        22    -0.90223       14.0070 ; qtot   -1.681
        23           h22bf         1   UNL       h22        23     0.14202        1.0080 ; qtot   -1.539
        24           h23bf         1   UNL       h23        24     0.14072        1.0080 ; qtot   -1.398
        25           h24bf         1   UNL       h24        25     0.15735        1.0080 ; qtot   -1.241
        26           h25bf         1   UNL       h25        26     0.20692        1.0080 ; qtot   -1.034
        27           h26bf         1   UNL       h26        27     0.02859        1.0080 ; qtot   -1.005
        28           h27bf         1   UNL       h27        28     0.07900        1.0080 ; qtot   -0.926
        29           h28bf         1   UNL       h28        29     0.06198        1.0080 ; qtot   -0.864
        30           h29bf         1   UNL       h29        30     0.06198        1.0080 ; qtot   -0.802
        31           h30bf         1   UNL       h30        31     0.06198        1.0080 ; qtot   -0.741
        32           h31bf         1   UNL       h31        32     0.49895        1.0080 ; qtot   -0.242
        33           c32bf         1   UNL       c32        33     0.20635       12.0110 ; qtot   -0.035
        34           c33bf         1   UNL       c33        34    -0.12689       12.0110 ; qtot   -0.162
        35           c34bf         1   UNL       c34        35     0.14770       12.0110 ; qtot   -0.014
        36           o35bf         1   UNL       o35        36    -0.46215       15.9990 ; qtot   -0.477
        37           c36bf         1   UNL       c36        37     0.13432       12.0110 ; qtot   -0.342
        38           h37bf         1   UNL       h37        38     0.06386        1.0080 ; qtot   -0.278
        39           h38bf         1   UNL       h38        39     0.06386        1.0080 ; qtot   -0.215
        40           h39bf         1   UNL       h39        40     0.05020        1.0080 ; qtot   -0.164
        41           h40bf         1   UNL       h40        41     0.05020        1.0080 ; qtot   -0.114
        42           h41bf         1   UNL       h41        42     0.05703        1.0080 ; qtot   -0.057
        43           h42bf         1   UNL       h42        43     0.05707        1.0080 ; qtot   -0.000

[ bonds ]
;       ai        aj funct               r               k
         1         3     1        0.139038   316524.477588
         1         7     1        0.139274   306854.774512
         1        25     1        0.108387   329224.337451
         2        12     1        0.147699   176240.708545
         2        19     1        0.123181   585119.222852
         2        20     1        0.141002   186312.748779
         3        13     1        0.139881   278838.982227
         3        15     1        0.134995   302917.054395
         4        18     1        0.136056   238365.856006
         4        21     1        0.134660   275587.674072
         4        22     1        0.135962   333360.327686
         5         6     1        0.143064   268512.132715
         5        10     1        0.141891   250686.821777
         5        11     1        0.140361   289612.577930
         6        12     1        0.135694   413732.097314
         6        26     1        0.108546   321757.107910
         7         8     1        0.139128   306394.902246
         7        16     1        0.135607   292150.787842
         8         9     1        0.139766   317517.437012
         8        23     1        0.108444   326597.718066
         9        13     1        0.139462   301245.318604
         9        24     1        0.108442   325811.302783
        10        20     1        0.137708   269950.127344
        10        21     1        0.133537   325101.268994
        11        18     1        0.132479   374416.925781
        11        27     1        0.108986   309599.605176
        12        17     1        0.136853   261929.253271
        13        17     1        0.138211   245996.574121
        14        20     1        0.147084   183535.690283
        14        29     1        0.108968   310419.857129
        14        30     1        0.108968   310419.857129
        14        31     1        0.108968   310419.857129
        22        32     1        0.101233   417240.742920
        22        33     1        0.145801   206378.379248
        28        33     1        0.109219   304872.762842
        33        34     1        0.154565   157610.238086
        33        37     1        0.153999   164602.579541
        34        35     1        0.153816   171038.518457
        34        38     1        0.109268   308482.663086
        34        39     1        0.109268   308482.663086
        35        36     1        0.143923   176546.349438
        35        40     1        0.109537   295900.784668
        35        41     1        0.109537   295900.784668
        36        37     1        0.142984   189276.828296
        37        42     1        0.109569   295457.690283
        37        43     1        0.109569   295457.690283

[ angles ]
;       ai        aj        ak funct           theta             cth
         1         3        13     1      121.913330      589.890372
         1         3        15     1      119.021118      546.594501
         1         7         8     1      122.381203      586.088790
         1         7        16     1      118.423096      577.916724
         2        12         6     1      122.040298      724.098161
         2        12        17     1      116.128212      320.885526
         2        20        10     1      122.903442      565.569084
         2        20        14     1      117.580322      599.849206
         3         1         7     1      117.606956      745.241738
         3         1        25     1      120.750504      415.603623
         3        13         9     1      118.750526      612.866939
         3        13        17     1      120.038025      362.403759
         4        18        11     1      115.887939      931.423801
         4        21        10     1      116.524857      752.729091
         4        22        32     1      114.472366      481.974570
         4        22        33     1      124.116898      457.454827
         5         6        12     1      119.936729      510.649743
         5         6        26     1      120.067749      410.568215
         5        10        20     1      119.378502      601.595562
         5        10        21     1      122.320641      735.392011
         5        11        18     1      123.610275      738.427160
         5        11        27     1      119.677650      407.522181
         6         5        10     1      119.789352      689.720934
         6         5        11     1      125.009766      443.617193
         6        12        17     1      121.720322      450.152427
         7         1        25     1      121.558578      415.206138
         7         8         9     1      118.578598      692.396968
         7         8        23     1      119.971153      420.856319
         8         7        16     1      119.175308      576.491115
         8         9        13     1      120.569313      694.362878
         8         9        24     1      120.676376      412.191418
         9         8        23     1      121.452782      418.521557
         9        13        17     1      120.941628      501.739750
        10         5        11     1      115.049294      848.565457
        10        20        14     1      119.142700      531.615518
        12         2        19     1      122.794418      308.084125
        12         2        20     1      115.680214      669.218912
        12         6        26     1      120.082497      430.961513
        12        17        13     1      118.724243      413.969854
        13         3        15     1      119.050255      408.388847
        13         9        24     1      118.790672      407.974539
        18         4        21     1      126.305008      633.943226
        18         4        22     1      116.705444      603.480264
        18        11        27     1      116.335060      437.614281
        19         2        20     1      121.284706      608.542102
        20        10        21     1      118.122719      541.139328
        20        14        29     1      109.003319      486.045664
        20        14        30     1      109.003319      486.045664
        20        14        31     1      109.003319      486.045664
        21         4        22     1      116.335037      539.265734
        22        33        28     1      107.635330      503.774802
        22        33        34     1      112.905029      561.189853
        22        33        37     1      111.617699      542.883193
        28        33        34     1      110.912231      431.353635
        28        33        37     1      111.085548      444.250609
        29        14        30     1      109.918945      341.457392
        29        14        31     1      109.918945      341.457392
        30        14        31     1      109.918945      341.457392
        32        22        33     1      118.401306      418.261014
        33        34        35     1      102.844376      587.281182
        33        34        38     1      110.811935      488.892828
        33        34        39     1      110.811935      488.892828
        33        37        36     1      105.627014      445.262134
        33        37        42     1      111.597275      460.123902
        33        37        43     1      111.597290      460.123902
        34        33        37     1      101.726723      460.047259
        34        35        36     1      106.051331      477.873789
        34        35        40     1      112.340561      441.692078
        34        35        41     1      112.340561      441.692078
        35        34        38     1      111.821762      471.134993
        35        34        39     1      111.821762      471.134993
        35        36        37     1      107.582336      586.835048
        36        35        40     1      108.602760      473.440228
        36        35        41     1      108.602760      473.440228
        36        37        42     1      109.439636      477.512790
        36        37        43     1      109.439636      477.512790
        38        34        39     1      108.316734      355.477744
        40        35        41     1      108.723160      338.471369
        42        37        43     1      109.052322      337.533583

[ dihedrals ] ; propers for gromacs 4.5 or higher, use funct 9
;       ai        aj        ak        al funct           phase               k        pn
         1         3        13         9     9        0.000000       -0.033769         1
         1         3        13         9     9      180.000000       15.070050         2
         1         3        13         9     9        0.000000       -0.822733         3
         1         3        13         9     9      180.000000       -0.166007         4
         1         3        13        17     9        0.000000        0.213515         1
         1         3        13        17     9      180.000000       15.796953         2
         1         3        13        17     9        0.000000        0.046168         3
         1         3        13        17     9      180.000000       -0.230207         4
         1         7         8         9     9        0.000000       -0.084562         1
         1         7         8         9     9      180.000000       17.436868         2
         1         7         8         9     9        0.000000       -1.215052         3
         1         7         8         9     9      180.000000       -0.350359         4
         1         7         8        23     9        0.000000        0.222596         1
         1         7         8        23     9      180.000000       12.990701         2
         1         7         8        23     9        0.000000       -0.533192         3
         1         7         8        23     9      180.000000        0.123340         4
         2        12         6         5     9        0.000000       -0.265137         1
         2        12         6         5     9      180.000000       20.042194         2
         2        12         6         5     9        0.000000       -0.708806         3
         2        12         6         5     9      180.000000       -0.884190         4
         2        12         6        26     9        0.000000       -0.033528         1
         2        12         6        26     9      180.000000       15.197706         2
         2        12         6        26     9        0.000000       -0.108211         3
         2        12         6        26     9      180.000000        0.062165         4
         2        12        17        13     9        0.000000        1.516945         1
         2        12        17        13     9      180.000000        3.262531         2
         2        12        17        13     9        0.000000        1.468404         3
         2        12        17        13     9      180.000000       -0.331072         4
         2        20        10         5     9        0.000000       -0.765742         1
         2        20        10         5     9      180.000000        5.951752         2
         2        20        10         5     9        0.000000       -0.498817         3
         2        20        10         5     9      180.000000        0.177718         4
         2        20        10        21     9        0.000000        0.409613         1
         2        20        10        21     9      180.000000        7.771476         2
         2        20        10        21     9        0.000000        0.435838         3
         2        20        10        21     9      180.000000       -0.197089         4
         2        20        14        29     9        0.000000        0.022638         1
         2        20        14        29     9      180.000000        0.065320         2
         2        20        14        29     9        0.000000       -0.063790         3
         2        20        14        29     9      180.000000        0.031607         4
         2        20        14        30     9        0.000000        0.022638         1
         2        20        14        30     9      180.000000        0.065320         2
         2        20        14        30     9        0.000000       -0.063790         3
         2        20        14        30     9      180.000000        0.031607         4
         2        20        14        31     9        0.000000        0.022638         1
         2        20        14        31     9      180.000000        0.065320         2
         2        20        14        31     9        0.000000       -0.063790         3
         2        20        14        31     9      180.000000        0.031607         4
         3         1         7         8     9        0.000000       -0.101773         1
         3         1         7         8     9      180.000000       17.261374         2
         3         1         7         8     9        0.000000       -1.245547         3
         3         1         7         8     9      180.000000       -0.369105         4
         3         1         7        16     9        0.000000        0.202544         1
         3         1         7        16     9      180.000000       22.811181         2
         3         1         7        16     9        0.000000        0.550755         3
         3         1         7        16     9      180.000000       -0.701551         4
         3        13         9         8     9        0.000000       -0.019541         1
         3        13         9         8     9      180.000000       17.479613         2
         3        13         9         8     9        0.000000       -1.174083         3
         3        13         9         8     9      180.000000       -0.342804         4
         3        13         9        24     9        0.000000        0.103760         1
         3        13         9        24     9      180.000000       12.825624         2
         3        13         9        24     9        0.000000       -0.551225         3
         3        13         9        24     9      180.000000        0.193193         4
         3        13        17        12     9        0.000000        0.381500         1
         3        13        17        12     9      180.000000        2.030263         2
         3        13        17        12     9        0.000000        0.322851         3
         3        13        17        12     9      180.000000       -0.088607         4
         4        18        11         5     9        0.000000       -0.283550         1
         4        18        11         5     9      180.000000       20.852658         2
         4        18        11         5     9        0.000000       -1.448595         3
         4        18        11         5     9      180.000000       -0.228504         4
         4        18        11        27     9        0.000000        0.368799         1
         4        18        11        27     9      180.000000       18.903277         2
         4        18        11        27     9        0.000000       -0.077502         3
         4        18        11        27     9      180.000000       -0.252634         4
         4        21        10         5     9        0.000000       -0.220622         1
         4        21        10         5     9      180.000000       12.287853         2
         4        21        10         5     9        0.000000       -0.525772         3
         4        21        10         5     9      180.000000       -0.021333         4
         4        21        10        20     9        0.000000       -0.183349         1
         4        21        10        20     9      180.000000       16.323410         2
         4        21        10        20     9        0.000000        0.555608         3
         4        21        10        20     9      180.000000       -0.452898         4
         4        22        33        28     9        0.000000        0.124351         1
         4        22        33        28     9      180.000000       -0.027323         2
         4        22        33        28     9        0.000000        0.643610         3
         4        22        33        28     9      180.000000        0.013421         4
         4        22        33        34     9        0.000000       -0.822963         1
         4        22        33        34     9      180.000000       -0.152996         2
         4        22        33        34     9        0.000000        0.402526         3
         4        22        33        34     9      180.000000        0.007851         4
         4        22        33        37     9        0.000000        0.537926         1
         4        22        33        37     9      180.000000       -0.755613         2
         4        22        33        37     9        0.000000        0.328139         3
         4        22        33        37     9      180.000000        0.127298         4
         5         6        12        17     9        0.000000       -0.497504         1
         5         6        12        17     9      180.000000       27.319683         2
         5         6        12        17     9        0.000000       -0.115449         3
         5         6        12        17     9      180.000000       -1.532204         4
         5        10        20        14     9        0.000000       -0.018704         1
         5        10        20        14     9      180.000000        8.791424         2
         5        10        20        14     9        0.000000       -0.087713         3
         5        10        20        14     9      180.000000        0.166834         4
         6         5        10        20     9        0.000000        0.261452         1
         6         5        10        20     9      180.000000       13.067071         2
         6         5        10        20     9        0.000000       -0.101848         3
         6         5        10        20     9      180.000000       -0.470051         4
         6         5        10        21     9        0.000000        0.233693         1
         6         5        10        21     9      180.000000       12.201012         2
         6         5        10        21     9        0.000000        0.124728         3
         6         5        10        21     9      180.000000       -0.324956         4
         6         5        11        18     9        0.000000        0.063770         1
         6         5        11        18     9      180.000000       14.028535         2
         6         5        11        18     9        0.000000        0.103297         3
         6         5        11        18     9      180.000000       -0.510630         4
         6         5        11        27     9        0.000000        0.133435         1
         6         5        11        27     9      180.000000       12.136538         2
         6         5        11        27     9        0.000000        0.198842         3
         6         5        11        27     9      180.000000       -0.109515         4
         6        12         2        19     9        0.000000        0.484356         1
         6        12         2        19     9      180.000000        5.076079         2
         6        12         2        19     9        0.000000       -0.049823         3
         6        12         2        19     9      180.000000       -0.379185         4
         6        12         2        20     9        0.000000        1.749896         1
         6        12         2        20     9      180.000000        2.060494         2
         6        12         2        20     9        0.000000        0.186700         3
         6        12         2        20     9      180.000000        0.011112         4
         6        12        17        13     9        0.000000       -0.338245         1
         6        12        17        13     9      180.000000        4.737598         2
         6        12        17        13     9        0.000000       -1.572261         3
         6        12        17        13     9      180.000000        0.139854         4
         7         1         3        13     9        0.000000       -0.159544         1
         7         1         3        13     9      180.000000       17.441704         2
         7         1         3        13     9        0.000000       -1.253452         3
         7         1         3        13     9      180.000000       -0.342164         4
         7         1         3        15     9        0.000000        0.535263         1
         7         1         3        15     9      180.000000       22.924715         2
         7         1         3        15     9        0.000000        0.562820         3
         7         1         3        15     9      180.000000       -0.548398         4
         7         8         9        13     9        0.000000       -0.193831         1
         7         8         9        13     9      180.000000       18.718306         2
         7         8         9        13     9        0.000000       -1.470902         3
         7         8         9        13     9      180.000000       -0.444338         4
         7         8         9        24     9        0.000000        0.152983         1
         7         8         9        24     9      180.000000       14.549564         2
         7         8         9        24     9        0.000000       -0.624238         3
         7         8         9        24     9      180.000000        0.081753         4
         8         7         1        25     9        0.000000        0.181711         1
         8         7         1        25     9      180.000000       12.249439         2
         8         7         1        25     9        0.000000       -0.437418         3
         8         7         1        25     9      180.000000        0.175565         4
         8         9        13        17     9        0.000000        0.435183         1
         8         9        13        17     9      180.000000       18.963855         2
         8         9        13        17     9        0.000000        0.317361         3
         8         9        13        17     9      180.000000       -0.395936         4
         9         8         7        16     9        0.000000        0.505280         1
         9         8         7        16     9      180.000000       23.564142         2
         9         8         7        16     9        0.000000        0.449858         3
         9         8         7        16     9      180.000000       -0.661252         4
         9        13         3        15     9        0.000000        0.586984         1
         9        13         3        15     9      180.000000       18.000233         2
         9        13         3        15     9        0.000000        0.390466         3
         9        13         3        15     9      180.000000       -0.347261         4
         9        13        17        12     9        0.000000       -0.612805         1
         9        13        17        12     9      180.000000        3.389636         2
         9        13        17        12     9        0.000000       -0.690547         3
         9        13        17        12     9      180.000000        0.142857         4
        10         5         6        12     9        0.000000       -0.799946         1
        10         5         6        12     9      180.000000       11.967293         2
        10         5         6        12     9        0.000000       -1.631404         3
        10         5         6        12     9      180.000000       -0.272800         4
        10         5         6        26     9        0.000000        0.169910         1
        10         5         6        26     9      180.000000        8.224332         2
        10         5         6        26     9        0.000000       -0.346721         3
        10         5         6        26     9      180.000000       -0.142643         4
        10         5        11        18     9        0.000000        0.170656         1
        10         5        11        18     9      180.000000       14.544579         2
        10         5        11        18     9        0.000000       -0.212829         3
        10         5        11        18     9      180.000000       -0.409285         4
        10         5        11        27     9        0.000000        0.213360         1
        10         5        11        27     9      180.000000       12.143051         2
        10         5        11        27     9        0.000000       -0.251694         3
        10         5        11        27     9      180.000000       -0.220202         4
        10        20         2        12     9        0.000000       -1.696775         1
        10        20         2        12     9      180.000000        4.401753         2
        10        20         2        12     9        0.000000        0.014738         3
        10        20         2        12     9      180.000000        0.125035         4
        10        20         2        19     9        0.000000        0.385316         1
        10        20         2        19     9      180.000000       10.242091         2
        10        20         2        19     9        0.000000       -0.624317         3
        10        20         2        19     9      180.000000       -0.267493         4
        10        20        14        29     9        0.000000       -0.081121         1
        10        20        14        29     9      180.000000        0.031841         2
        10        20        14        29     9        0.000000       -0.113192         3
        10        20        14        29     9      180.000000        0.046008         4
        10        20        14        30     9        0.000000       -0.081121         1
        10        20        14        30     9      180.000000        0.031841         2
        10        20        14        30     9        0.000000       -0.113192         3
        10        20        14        30     9      180.000000        0.046008         4
        10        20        14        31     9        0.000000       -0.081121         1
        10        20        14        31     9      180.000000        0.031841         2
        10        20        14        31     9        0.000000       -0.113192         3
        10        20        14        31     9      180.000000        0.046008         4
        10        21         4        18     9        0.000000        0.766411         1
        10        21         4        18     9      180.000000        9.986631         2
        10        21         4        18     9        0.000000        0.572500         3
        10        21         4        18     9      180.000000       -0.397723         4
        10        21         4        22     9        0.000000        0.640910         1
        10        21         4        22     9      180.000000       16.353337         2
        10        21         4        22     9        0.000000        0.221932         3
        10        21         4        22     9      180.000000       -0.985610         4
        11         5         6        12     9        0.000000       -0.641368         1
        11         5         6        12     9      180.000000        8.717966         2
        11         5         6        12     9        0.000000       -0.844723         3
        11         5         6        12     9      180.000000        0.032929         4
        11         5         6        26     9        0.000000       -0.807497         1
        11         5         6        26     9      180.000000        4.812960         2
        11         5         6        26     9        0.000000       -0.377694         3
        11         5         6        26     9      180.000000       -0.053987         4
        11         5        10        20     9        0.000000       -0.369401         1
        11         5        10        20     9      180.000000       11.814579         2
        11         5        10        20     9        0.000000       -0.313551         3
        11         5        10        20     9      180.000000       -0.349425         4
        11         5        10        21     9        0.000000        0.005545         1
        11         5        10        21     9      180.000000       11.068458         2
        11         5        10        21     9        0.000000        0.143169         3
        11         5        10        21     9      180.000000       -0.271604         4
        11        18         4        21     9        0.000000        0.631006         1
        11        18         4        21     9      180.000000        9.636069         2
        11        18         4        21     9        0.000000        0.762420         3
        11        18         4        21     9      180.000000       -0.515697         4
        11        18         4        22     9        0.000000        1.300811         1
        11        18         4        22     9      180.000000       15.307489         2
        11        18         4        22     9        0.000000        0.391580         3
        11        18         4        22     9      180.000000       -0.810047         4
        12         2        20        14     9        0.000000        0.463791         1
        12         2        20        14     9      180.000000        9.121670         2
        12         2        20        14     9        0.000000        0.308329         3
        12         2        20        14     9      180.000000        0.001685         4
        13         3         1        25     9        0.000000        0.204291         1
        13         3         1        25     9      180.000000       12.330683         2
        13         3         1        25     9        0.000000       -0.429751         3
        13         3         1        25     9      180.000000        0.180492         4
        13         9         8        23     9        0.000000        0.085472         1
        13         9         8        23     9      180.000000       14.240723         2
        13         9         8        23     9        0.000000       -0.502524         3
        13         9         8        23     9      180.000000        0.093111         4
        14        20         2        19     9        0.000000       -0.626933         1
        14        20         2        19     9      180.000000       11.384754         2
        14        20         2        19     9        0.000000       -1.173841         3
        14        20         2        19     9      180.000000        0.509300         4
        14        20        10        21     9        0.000000       -0.827750         1
        14        20        10        21     9      180.000000       10.031829         2
        14        20        10        21     9        0.000000       -0.108661         3
        14        20        10        21     9      180.000000        0.222248         4
        15         3         1        25     9        0.000000        0.356407         1
        15         3         1        25     9      180.000000       15.755417         2
        15         3         1        25     9        0.000000        0.173168         3
        15         3         1        25     9      180.000000        0.272104         4
        15         3        13        17     9        0.000000       -0.107429         1
        15         3        13        17     9      180.000000       20.900297         2
        15         3        13        17     9        0.000000        0.246361         3
        15         3        13        17     9      180.000000       -0.890880         4
        16         7         1        25     9        0.000000        0.302040         1
        16         7         1        25     9      180.000000       14.938911         2
        16         7         1        25     9        0.000000        0.256433         3
        16         7         1        25     9      180.000000        0.230067         4
        16         7         8        23     9        0.000000        0.256909         1
        16         7         8        23     9      180.000000       16.033530         2
        16         7         8        23     9        0.000000        0.305426         3
        16         7         8        23     9      180.000000        0.139760         4
        17        12         2        19     9        0.000000       -1.917023         1
        17        12         2        19     9      180.000000       10.924892         2
        17        12         2        19     9        0.000000       -0.430673         3
        17        12         2        19     9      180.000000       -0.290223         4
        17        12         2        20     9        0.000000        0.111385         1
        17        12         2        20     9      180.000000        7.207314         2
        17        12         2        20     9        0.000000        0.351182         3
        17        12         2        20     9      180.000000        0.012035         4
        17        12         6        26     9        0.000000        0.155001         1
        17        12         6        26     9      180.000000       19.751095         2
        17        12         6        26     9        0.000000        0.160795         3
        17        12         6        26     9      180.000000       -0.191934         4
        17        13         9        24     9        0.000000        0.172923         1
        17        13         9        24     9      180.000000       14.279827         2
        17        13         9        24     9        0.000000        0.166673         3
        17        13         9        24     9      180.000000        0.327322         4
        18         4        22        32     9        0.000000       -0.456457         1
        18         4        22        32     9      180.000000       10.482534         2
        18         4        22        32     9        0.000000       -0.507455         3
        18         4        22        32     9      180.000000       -0.630248         4
        18         4        22        33     9        0.000000        0.061966         1
        18         4        22        33     9      180.000000        8.248011         2
        18         4        22        33     9        0.000000        0.544280         3
        18         4        22        33     9      180.000000       -0.822404         4
        21         4        22        32     9        0.000000        0.858254         1
        21         4        22        32     9      180.000000       10.515601         2
        21         4        22        32     9        0.000000       -0.553575         3
        21         4        22        32     9      180.000000       -0.505452         4
        21         4        22        33     9        0.000000        0.010226         1
        21         4        22        33     9      180.000000        8.657823         2
        21         4        22        33     9        0.000000        0.156622         3
        21         4        22        33     9      180.000000       -0.609242         4
        22        33        34        35     9        0.000000        0.333912         1
        22        33        34        35     9      180.000000       -0.551751         2
        22        33        34        35     9        0.000000        0.009998         3
        22        33        34        35     9      180.000000        0.313470         4
        22        33        34        38     9        0.000000       -0.013964         1
        22        33        34        38     9      180.000000        0.055633         2
        22        33        34        38     9        0.000000        0.295323         3
        22        33        34        38     9      180.000000       -0.024455         4
        22        33        34        39     9        0.000000       -0.013964         1
        22        33        34        39     9      180.000000        0.055633         2
        22        33        34        39     9        0.000000        0.295323         3
        22        33        34        39     9      180.000000       -0.024455         4
        22        33        37        36     9        0.000000       -0.622449         1
        22        33        37        36     9      180.000000       -2.242055         2
        22        33        37        36     9        0.000000        0.060528         3
        22        33        37        36     9      180.000000        0.360973         4
        22        33        37        42     9        0.000000        0.009469         1
        22        33        37        42     9      180.000000        0.053870         2
        22        33        37        42     9        0.000000        0.289945         3
        22        33        37        42     9      180.000000        0.011517         4
        22        33        37        43     9        0.000000        0.009469         1
        22        33        37        43     9      180.000000        0.053870         2
        22        33        37        43     9        0.000000        0.289945         3
        22        33        37        43     9      180.000000        0.011517         4
        23         8         9        24     9        0.000000       -0.156577         1
        23         8         9        24     9      180.000000       11.949669         2
        23         8         9        24     9        0.000000       -0.717197         3
        23         8         9        24     9      180.000000        0.181692         4
        28        33        22        32     9        0.000000       -0.922177         1
        28        33        22        32     9      180.000000       -0.408408         2
        28        33        22        32     9        0.000000        0.381411         3
        28        33        22        32     9      180.000000       -0.053929         4
        28        33        34        35     9        0.000000       -0.013193         1
        28        33        34        35     9      180.000000       -0.097614         2
        28        33        34        35     9        0.000000       -0.013666         3
        28        33        34        35     9      180.000000        0.272643         4
        28        33        34        38     9        0.000000       -0.021395         1
        28        33        34        38     9      180.000000        0.013633         2
        28        33        34        38     9        0.000000        0.247159         3
        28        33        34        38     9      180.000000       -0.051477         4
        28        33        34        39     9        0.000000       -0.021395         1
        28        33        34        39     9      180.000000        0.013633         2
        28        33        34        39     9        0.000000        0.247159         3
        28        33        34        39     9      180.000000       -0.051477         4
        28        33        37        36     9        0.000000        1.220750         1
        28        33        37        36     9      180.000000       -0.083984         2
        28        33        37        36     9        0.000000       -0.024612         3
        28        33        37        36     9      180.000000        0.051186         4
        28        33        37        42     9        0.000000       -0.089175         1
        28        33        37        42     9      180.000000        0.011691         2
        28        33        37        42     9        0.000000        0.268042         3
        28        33        37        42     9      180.000000       -0.020163         4
        28        33        37        43     9        0.000000       -0.089175         1
        28        33        37        43     9      180.000000        0.011691         2
        28        33        37        43     9        0.000000        0.268042         3
        28        33        37        43     9      180.000000       -0.020163         4
        32        22        33        34     9        0.000000        1.367983         1
        32        22        33        34     9      180.000000        0.336285         2
        32        22        33        34     9        0.000000        0.234702         3
        32        22        33        34     9      180.000000       -0.037077         4
        32        22        33        37     9        0.000000        0.780082         1
        32        22        33        37     9      180.000000       -0.532589         2
        32        22        33        37     9        0.000000        0.257986         3
        32        22        33        37     9      180.000000        0.039798         4
        33        34        35        36     9        0.000000        0.297616         1
        33        34        35        36     9      180.000000       -0.357860         2
        33        34        35        36     9        0.000000        0.087168         3
        33        34        35        36     9      180.000000       -0.507469         4
        33        34        35        40     9        0.000000        0.005758         1
        33        34        35        40     9      180.000000        0.011892         2
        33        34        35        40     9        0.000000        0.082154         3
        33        34        35        40     9      180.000000        0.048756         4
        33        34        35        41     9        0.000000        0.005758         1
        33        34        35        41     9      180.000000        0.011892         2
        33        34        35        41     9        0.000000        0.082154         3
        33        34        35        41     9      180.000000        0.048756         4
        33        37        36        35     9        0.000000       -0.448576         1
        33        37        36        35     9      180.000000        3.045901         2
        33        37        36        35     9        0.000000       -0.253608         3
        33        37        36        35     9      180.000000       -1.076390         4
        34        33        37        36     9        0.000000       -0.436502         1
        34        33        37        36     9      180.000000        2.894408         2
        34        33        37        36     9        0.000000       -0.110064         3
        34        33        37        36     9      180.000000       -1.723450         4
        34        33        37        42     9        0.000000        0.067279         1
        34        33        37        42     9      180.000000       -0.031083         2
        34        33        37        42     9        0.000000        0.067634         3
        34        33        37        42     9      180.000000        0.081448         4
        34        33        37        43     9        0.000000        0.067279         1
        34        33        37        43     9      180.000000       -0.031083         2
        34        33        37        43     9        0.000000        0.067634         3
        34        33        37        43     9      180.000000        0.081448         4
        34        35        36        37     9        0.000000       -0.078916         1
        34        35        36        37     9      180.000000        1.346958         2
        34        35        36        37     9        0.000000       -0.067460         3
        34        35        36        37     9      180.000000       -0.283051         4
        35        34        33        37     9        0.000000       -0.769503         1
        35        34        33        37     9      180.000000        3.884867         2
        35        34        33        37     9        0.000000       -0.623368         3
        35        34        33        37     9      180.000000        0.033734         4
        35        36        37        42     9        0.000000       -0.004725         1
        35        36        37        42     9      180.000000        0.014007         2
        35        36        37        42     9        0.000000        0.034923         3
        35        36        37        42     9      180.000000        0.188006         4
        35        36        37        43     9        0.000000       -0.004725         1
        35        36        37        43     9      180.000000        0.014007         2
        35        36        37        43     9        0.000000        0.034923         3
        35        36        37        43     9      180.000000        0.188006         4
        36        35        34        38     9        0.000000       -0.065693         1
        36        35        34        38     9      180.000000        0.071370         2
        36        35        34        38     9        0.000000        0.117832         3
        36        35        34        38     9      180.000000        0.065924         4
        36        35        34        39     9        0.000000       -0.065693         1
        36        35        34        39     9      180.000000        0.071370         2
        36        35        34        39     9        0.000000        0.117832         3
        36        35        34        39     9      180.000000        0.065924         4
        37        33        34        38     9        0.000000       -0.048674         1
        37        33        34        38     9      180.000000       -0.027951         2
        37        33        34        38     9        0.000000       -0.045380         3
        37        33        34        38     9      180.000000        0.091641         4
        37        33        34        39     9        0.000000       -0.048674         1
        37        33        34        39     9      180.000000       -0.027951         2
        37        33        34        39     9        0.000000       -0.045380         3
        37        33        34        39     9      180.000000        0.091641         4
        37        36        35        40     9        0.000000        0.082315         1
        37        36        35        40     9      180.000000       -0.019074         2
        37        36        35        40     9        0.000000        0.058410         3
        37        36        35        40     9      180.000000        0.095453         4
        37        36        35        41     9        0.000000        0.082315         1
        37        36        35        41     9      180.000000       -0.019074         2
        37        36        35        41     9        0.000000        0.058410         3
        37        36        35        41     9      180.000000        0.095453         4
        38        34        35        40     9        0.000000       -0.031427         1
        38        34        35        40     9      180.000000       -0.009502         2
        38        34        35        40     9        0.000000        0.261497         3
        38        34        35        40     9      180.000000       -0.011049         4
        38        34        35        41     9        0.000000       -0.031427         1
        38        34        35        41     9      180.000000       -0.009502         2
        38        34        35        41     9        0.000000        0.261497         3
        38        34        35        41     9      180.000000       -0.011049         4
        39        34        35        40     9        0.000000       -0.031427         1
        39        34        35        40     9      180.000000       -0.009502         2
        39        34        35        40     9        0.000000        0.261497         3
        39        34        35        40     9      180.000000       -0.011049         4
        39        34        35        41     9        0.000000       -0.031427         1
        39        34        35        41     9      180.000000       -0.009502         2
        39        34        35        41     9        0.000000        0.261497         3
        39        34        35        41     9      180.000000       -0.011049         4

[ dihedrals ] ; impropers
;       ai        aj        ak        al funct           phase               k        pn
         2        12        19        20     4      180.000000       20.883038         2
         2        19        20        12     4      180.000000       20.883038         2
         2        20        12        19     4      180.000000       20.883038         2
         4        18        21        22     4      180.000000       27.893333         2
         4        21        22        18     4      180.000000       27.893333         2
         4        22        18        21     4      180.000000       27.893333         2
         6         5        12        26     4      180.000000        2.344824         2
         6        12        26         5     4      180.000000        2.344824         2
         6        26         5        12     4      180.000000        2.344824         2
         7         1         8        16     4      180.000000        0.457749         2
         7         8        16         1     4      180.000000        0.457749         2
         7        16         1         8     4      180.000000        0.457749         2
         9         8        13        24     4      180.000000        1.019580         2
         9        13        24         8     4      180.000000        1.019580         2
         9        24         8        13     4      180.000000        1.019580         2
        10         5        20        21     4      180.000000       14.385011         2
        10        20        21         5     4      180.000000       14.385011         2
        10        21         5        20     4      180.000000       14.385011         2
        11         5        18        27     4      180.000000       13.831654         2
        11        18        27         5     4      180.000000       13.831654         2
        11        27         5        18     4      180.000000       13.831654         2

[ pairs ]
;       ai        aj funct
         1         9     1
         1        17     1
         1        23     1
         2         5     1
         2        13     1
         2        21     1
         2        26     1
         2        29     1
         2        30     1
         2        31     1
         3         8     1
         3        12     1
         3        16     1
         3        24     1
         4         5     1
         4        20     1
         4        27     1
         4        28     1
         4        34     1
         4        37     1
         5        14     1
         5        17     1
         6        13     1
         6        18     1
         6        19     1
         6        20     1
         6        21     1
         6        27     1
         7        13     1
         7        15     1
         7        24     1
         8        17     1
         8        25     1
         9        12     1
         9        15     1
         9        16     1
        10        12     1
        10        18     1
        10        19     1
        10        22     1
        10        26     1
        10        27     1
        10        29     1
        10        30     1
        10        31     1
        11        12     1
        11        20     1
        11        21     1
        11        22     1
        11        26     1
        12        14     1
        13        23     1
        13        25     1
        14        19     1
        14        21     1
        15        17     1
        15        25     1
        16        23     1
        16        25     1
        17        19     1
        17        20     1
        17        24     1
        17        26     1
        18        32     1
        18        33     1
        21        32     1
        21        33     1
        22        35     1
        22        36     1
        22        38     1
        22        39     1
        22        42     1
        22        43     1
        23        24     1
        28        32     1
        28        35     1
        28        36     1
        28        38     1
        28        39     1
        28        42     1
        28        43     1
        32        34     1
        32        37     1
        33        40     1
        33        41     1
        34        42     1
        34        43     1
        35        42     1
        35        43     1
        36        38     1
        36        39     1
        37        38     1
        37        39     1
        37        40     1
        37        41     1
        38        40     1
        38        41     1
        39        40     1
        39        41     1
