; ITP file created by ByteFF-ML, 2026-02-21 08:22:19.047086

[ atomtypes ]
;name           bonded.type        at.num        mass        charge   ptype           sigma         epsilon
 c0bf                                   6      0.0000       0.00000       A     3.31468e-01     4.12718e-01
 c1bf                                   6      0.0000       0.00000       A     3.31426e-01     4.13955e-01
 c2bf                                   6      0.0000       0.00000       A     3.31482e-01     4.13404e-01
 c3bf                                   6      0.0000       0.00000       A     3.31370e-01     4.10616e-01
 c4bf                                   6      0.0000       0.00000       A     3.40054e-01     4.46706e-01
 c5bf                                   6      0.0000       0.00000       A     3.31327e-01     4.13299e-01
 c6bf                                   6      0.0000       0.00000       A     3.31646e-01     4.12777e-01
 c7bf                                   6      0.0000       0.00000       A     3.31488e-01     4.13497e-01
 c8bf                                   6      0.0000       0.00000       A     3.31494e-01     4.12507e-01
 c9bf                                   6      0.0000       0.00000       A     3.31504e-01     4.12314e-01
 c10bf                                  6      0.0000       0.00000       A     3.31395e-01     4.13486e-01
 c11bf                                  6      0.0000       0.00000       A     3.31273e-01     4.14091e-01
 c12bf                                  6      0.0000       0.00000       A     3.31255e-01     4.17977e-01
 c13bf                                  6      0.0000       0.00000       A     3.31474e-01     4.12750e-01
 c14bf                                  6      0.0000       0.00000       A     3.39751e-01     4.51327e-01
 f15bf                                  9      0.0000       0.00000       A     3.03295e-01     3.47905e-01
 f16bf                                  9      0.0000       0.00000       A     3.03414e-01     3.47611e-01
 o17bf                                  8      0.0000       0.00000       A     3.16224e-01     3.10258e-01
 n18bf                                  7      0.0000       0.00000       A     3.38460e-01     3.92995e-01
 o19bf                                  8      0.0000       0.00000       A     3.04735e-01     6.10225e-01
 n20bf                                  7      0.0000       0.00000       A     3.18016e-01     6.83025e-01
 n21bf                                  7      0.0000       0.00000       A     3.38417e-01     3.92132e-01
 n22bf                                  7      0.0000       0.00000       A     3.28205e-01     6.46290e-01
 h23bf                                  1      0.0000       0.00000       A     2.62547e-01     6.71514e-02
 h24bf                                  1      0.0000       0.00000       A     2.62373e-01     6.68945e-02
 h25bf                                  1      0.0000       0.00000       A     2.62520e-01     6.71642e-02
 h26bf                                  1      0.0000       0.00000       A     2.62452e-01     6.74148e-02
 h27bf                                  1      0.0000       0.00000       A     2.53572e-01     6.74323e-02
 h28bf                                  1      0.0000       0.00000       A     2.42068e-01     8.71789e-02
 h29bf                                  1      0.0000       0.00000       A     2.42068e-01     8.71789e-02
 h30bf                                  1      0.0000       0.00000       A     2.42068e-01     8.71789e-02
 h31bf                                  1      0.0000       0.00000       A     1.10135e-01     4.12568e-02
 c32bf                                  6      0.0000       0.00000       A     3.39600e-01     4.52213e-01
 h33bf                                  1      0.0000       0.00000       A     2.41883e-01     8.68964e-02
 h34bf                                  1      0.0000       0.00000       A     2.41883e-01     8.68964e-02
 o35bf                                  8      0.0000       0.00000       A     3.24300e-01     3.87272e-01
 h36bf                                  1      0.0000       0.00000       A     5.34827e-02     2.07058e-02
 c37bf                                  6      0.0000       0.00000       A     3.39811e-01     4.50317e-01
 h38bf                                  1      0.0000       0.00000       A     2.60048e-01     8.74167e-02
 h39bf                                  1      0.0000       0.00000       A     2.60048e-01     8.74167e-02
 h40bf                                  1      0.0000       0.00000       A     2.60048e-01     8.74167e-02
 c41bf                                  6      0.0000       0.00000       A     3.39811e-01     4.50317e-01
 h42bf                                  1      0.0000       0.00000       A     2.60048e-01     8.74167e-02
 h43bf                                  1      0.0000       0.00000       A     2.60048e-01     8.74167e-02
 h44bf                                  1      0.0000       0.00000       A     2.60048e-01     8.74167e-02

[ moleculetype ]
;name             nrexcl
 2z                    3

[ atoms ]
;       nr            type      resi   res      atom      cgnr      charge          mass ; qtot
         1            c0bf         1   UNL        c0         1    -0.17396       12.0110 ; qtot   -0.174
         2            c1bf         1   UNL        c1         2     0.56377       12.0110 ; qtot    0.390
         3            c2bf         1   UNL        c2         3     0.17941       12.0110 ; qtot    0.569
         4            c3bf         1   UNL        c3         4     0.42005       12.0110 ; qtot    0.989
         5            c4bf         1   UNL        c4         5     0.23903       12.0110 ; qtot    1.228
         6            c5bf         1   UNL        c5         6    -0.27925       12.0110 ; qtot    0.949
         7            c6bf         1   UNL        c6         7    -0.09552       12.0110 ; qtot    0.854
         8            c7bf         1   UNL        c7         8     0.18085       12.0110 ; qtot    1.034
         9            c8bf         1   UNL        c8         9    -0.14500       12.0110 ; qtot    0.889
        10            c9bf         1   UNL        c9        10    -0.07757       12.0110 ; qtot    0.812
        11           c10bf         1   UNL       c10        11     0.30659       12.0110 ; qtot    1.118
        12           c11bf         1   UNL       c11        12     0.20502       12.0110 ; qtot    1.323
        13           c12bf         1   UNL       c12        13     0.00731       12.0110 ; qtot    1.331
        14           c13bf         1   UNL       c13        14     0.05605       12.0110 ; qtot    1.387
        15           c14bf         1   UNL       c14        15     0.08123       12.0110 ; qtot    1.468
        16           f15bf         1   UNL       f15        16    -0.16069       18.9980 ; qtot    1.307
        17           f16bf         1   UNL       f16        17    -0.17407       18.9980 ; qtot    1.133
        18           o17bf         1   UNL       o17        18    -0.21226       15.9990 ; qtot    0.921
        19           n18bf         1   UNL       n18        19    -0.25181       14.0070 ; qtot    0.669
        20           o19bf         1   UNL       o19        20    -0.53096       15.9990 ; qtot    0.138
        21           n20bf         1   UNL       n20        21    -0.36663       14.0070 ; qtot   -0.228
        22           n21bf         1   UNL       n21        22    -0.30766       14.0070 ; qtot   -0.536
        23           n22bf         1   UNL       n22        23    -0.90766       14.0070 ; qtot   -1.444
        24           h23bf         1   UNL       h23        24     0.14202        1.0080 ; qtot   -1.302
        25           h24bf         1   UNL       h24        25     0.14072        1.0080 ; qtot   -1.161
        26           h25bf         1   UNL       h25        26     0.15735        1.0080 ; qtot   -1.004
        27           h26bf         1   UNL       h26        27     0.20692        1.0080 ; qtot   -0.797
        28           h27bf         1   UNL       h27        28     0.02838        1.0080 ; qtot   -0.768
        29           h28bf         1   UNL       h28        29     0.06198        1.0080 ; qtot   -0.706
        30           h29bf         1   UNL       h29        30     0.06198        1.0080 ; qtot   -0.644
        31           h30bf         1   UNL       h30        31     0.06198        1.0080 ; qtot   -0.582
        32           h31bf         1   UNL       h31        32     0.49587        1.0080 ; qtot   -0.087
        33           c32bf         1   UNL       c32        33     0.14714       12.0110 ; qtot    0.061
        34           h33bf         1   UNL       h33        34     0.04325        1.0080 ; qtot    0.104
        35           h34bf         1   UNL       h34        35     0.04325        1.0080 ; qtot    0.147
        36           o35bf         1   UNL       o35        36    -0.66742       15.9990 ; qtot   -0.520
        37           h36bf         1   UNL       h36        37     0.45134        1.0080 ; qtot   -0.069
        38           c37bf         1   UNL       c37        38    -0.10372       12.0110 ; qtot   -0.173
        39           h38bf         1   UNL       h38        39     0.04607        1.0080 ; qtot   -0.127
        40           h39bf         1   UNL       h39        40     0.04607        1.0080 ; qtot   -0.081
        41           h40bf         1   UNL       h40        41     0.04607        1.0080 ; qtot   -0.034
        42           c41bf         1   UNL       c41        42    -0.10372       12.0110 ; qtot   -0.138
        43           h42bf         1   UNL       h42        43     0.04607        1.0080 ; qtot   -0.092
        44           h43bf         1   UNL       h43        44     0.04607        1.0080 ; qtot   -0.046
        45           h44bf         1   UNL       h44        45     0.04606        1.0080 ; qtot   -0.000

[ bonds ]
;       ai        aj funct               r               k
         1         3     1        0.139038   316524.477588
         1         8     1        0.139274   306854.774512
         1        26     1        0.108387   329224.337451
         2        13     1        0.147699   176240.708545
         2        20     1        0.123181   585119.222852
         2        21     1        0.141002   186312.748779
         3        14     1        0.139881   278838.982227
         3        16     1        0.134995   302917.054395
         4        19     1        0.136153   236029.031738
         4        22     1        0.134657   274871.307080
         4        23     1        0.135982   328332.147461
         5        23     1        0.147822   171947.958765
         5        33     1        0.154605   160109.580518
         5        38     1        0.153765   175953.275610
         5        42     1        0.153765   175953.275610
         6         7     1        0.143064   268512.132715
         6        11     1        0.141899   250529.845166
         6        12     1        0.140364   289463.211377
         7        13     1        0.135694   413732.097314
         7        27     1        0.108546   321757.107910
         8         9     1        0.139128   306394.902246
         8        17     1        0.135607   292150.787842
         9        10     1        0.139766   317517.437012
         9        24     1        0.108444   326597.718066
        10        14     1        0.139462   301245.318604
        10        25     1        0.108442   325811.353857
        11        21     1        0.137734   269428.506348
        11        22     1        0.133533   325922.772266
        12        19     1        0.132481   375507.539111
        12        28     1        0.108990   309472.404834
        13        18     1        0.136853   261929.253271
        14        18     1        0.138211   245996.574121
        15        21     1        0.147084   183535.677515
        15        29     1        0.108968   310419.857129
        15        30     1        0.108968   310419.857129
        15        31     1        0.108968   310419.857129
        23        32     1        0.101240   416537.553076
        33        34     1        0.109686   289064.909082
        33        35     1        0.109686   289064.909082
        33        36     1        0.142953   210334.294556
        36        37     1        0.097072   468303.342285
        38        39     1        0.109314   302592.171289
        38        40     1        0.109314   302592.171289
        38        41     1        0.109314   302592.171289
        42        43     1        0.109314   302592.171289
        42        44     1        0.109314   302592.171289
        42        45     1        0.109314   302592.171289

[ angles ]
;       ai        aj        ak funct           theta             cth
         1         3        14     1      121.913330      589.890372
         1         3        16     1      119.021118      546.594501
         1         8         9     1      122.381203      586.088790
         1         8        17     1      118.423096      577.916724
         2        13         7     1      122.040298      724.098161
         2        13        18     1      116.128212      320.885526
         2        21        11     1      122.920120      568.423686
         2        21        15     1      117.580322      599.849206
         3         1         8     1      117.606956      745.241738
         3         1        26     1      120.750504      415.603623
         3        14        10     1      118.750526      612.866939
         3        14        18     1      120.038025      362.403759
         4        19        12     1      115.962326      924.313312
         4        22        11     1      116.548721      745.984549
         4        23         5     1      128.030563      451.394456
         4        23        32     1      113.100479      498.711145
         5        23        32     1      116.300278      406.581585
         5        33        34     1      108.954269      455.402920
         5        33        35     1      108.954269      455.402920
         5        33        36     1      112.011208      581.971953
         5        38        39     1      110.498802      485.651211
         5        38        40     1      110.498802      485.651211
         5        38        41     1      110.498802      485.651211
         5        42        43     1      110.498802      485.651211
         5        42        44     1      110.498802      485.651211
         5        42        45     1      110.498802      485.651211
         6         7        13     1      119.936729      510.649807
         6         7        27     1      120.067749      410.568215
         6        11        21     1      119.362831      603.865172
         6        11        22     1      122.275879      733.176922
         6        12        19     1      123.583412      736.985335
         6        12        28     1      119.657028      407.706304
         7         6        11     1      119.795570      690.076857
         7         6        12     1      125.003014      442.828895
         7        13        18     1      121.720322      450.152427
         8         1        26     1      121.558578      415.206138
         8         9        10     1      118.578598      692.396968
         8         9        24     1      119.971153      420.856319
         9         8        17     1      119.175308      576.491115
         9        10        14     1      120.569313      694.362878
         9        10        25     1      120.676376      412.191418
        10         9        24     1      121.452782      418.521557
        10        14        18     1      120.941628      501.739750
        11         6        12     1      115.053856      847.730585
        11        21        15     1      119.135315      531.964866
        13         2        20     1      122.794418      308.084125
        13         2        21     1      115.680214      669.218912
        13         7        27     1      120.082497      430.961513
        13        18        14     1      118.724243      413.969854
        14         3        16     1      119.050255      408.388879
        14        10        25     1      118.790672      407.974539
        19         4        22     1      126.187943      624.562105
        19         4        23     1      116.803818      595.014776
        19        12        28     1      116.323135      437.168818
        20         2        21     1      121.284706      608.542102
        21        11        22     1      118.092369      538.365168
        21        15        29     1      109.003319      486.045664
        21        15        30     1      109.003319      486.045664
        21        15        31     1      109.003319      486.045664
        22         4        23     1      116.446144      536.874758
        23         5        33     1      108.047729      539.437599
        23         5        38     1      109.519852      609.376846
        23         5        42     1      109.519852      609.376846
        29        15        30     1      109.918945      341.457392
        29        15        31     1      109.918945      341.457392
        30        15        31     1      109.918945      341.457392
        33         5        38     1      109.517502      580.974920
        33         5        42     1      109.517502      580.974920
        33        36        37     1      107.644653      592.549424
        34        33        35     1      107.904587      340.074110
        34        33        36     1      109.200584      478.329531
        35        33        36     1      109.200584      478.329531
        38         5        42     1      109.962570      589.476671
        39        38        40     1      108.415443      357.585577
        39        38        41     1      108.415443      357.585577
        40        38        41     1      108.415443      357.585577
        43        42        44     1      108.415443      357.585577
        43        42        45     1      108.415443      357.585577
        44        42        45     1      108.415443      357.585577

[ dihedrals ] ; propers for gromacs 4.5 or higher, use funct 9
;       ai        aj        ak        al funct           phase               k        pn
         1         3        14        10     9        0.000000       -0.033769         1
         1         3        14        10     9      180.000000       15.070050         2
         1         3        14        10     9        0.000000       -0.822733         3
         1         3        14        10     9      180.000000       -0.166007         4
         1         3        14        18     9        0.000000        0.213515         1
         1         3        14        18     9      180.000000       15.796953         2
         1         3        14        18     9        0.000000        0.046168         3
         1         3        14        18     9      180.000000       -0.230207         4
         1         8         9        10     9        0.000000       -0.084562         1
         1         8         9        10     9      180.000000       17.436868         2
         1         8         9        10     9        0.000000       -1.215052         3
         1         8         9        10     9      180.000000       -0.350359         4
         1         8         9        24     9        0.000000        0.222596         1
         1         8         9        24     9      180.000000       12.990701         2
         1         8         9        24     9        0.000000       -0.533192         3
         1         8         9        24     9      180.000000        0.123340         4
         2        13         7         6     9        0.000000       -0.265137         1
         2        13         7         6     9      180.000000       20.042194         2
         2        13         7         6     9        0.000000       -0.708806         3
         2        13         7         6     9      180.000000       -0.884190         4
         2        13         7        27     9        0.000000       -0.033528         1
         2        13         7        27     9      180.000000       15.197706         2
         2        13         7        27     9        0.000000       -0.108211         3
         2        13         7        27     9      180.000000        0.062165         4
         2        13        18        14     9        0.000000        1.516945         1
         2        13        18        14     9      180.000000        3.262531         2
         2        13        18        14     9        0.000000        1.468404         3
         2        13        18        14     9      180.000000       -0.331072         4
         2        21        11         6     9        0.000000       -0.766423         1
         2        21        11         6     9      180.000000        5.866931         2
         2        21        11         6     9        0.000000       -0.482679         3
         2        21        11         6     9      180.000000        0.187701         4
         2        21        11        22     9        0.000000        0.359636         1
         2        21        11        22     9      180.000000        7.626183         2
         2        21        11        22     9        0.000000        0.446453         3
         2        21        11        22     9      180.000000       -0.206298         4
         2        21        15        29     9        0.000000        0.022638         1
         2        21        15        29     9      180.000000        0.065320         2
         2        21        15        29     9        0.000000       -0.063790         3
         2        21        15        29     9      180.000000        0.031607         4
         2        21        15        30     9        0.000000        0.022638         1
         2        21        15        30     9      180.000000        0.065320         2
         2        21        15        30     9        0.000000       -0.063790         3
         2        21        15        30     9      180.000000        0.031607         4
         2        21        15        31     9        0.000000        0.022638         1
         2        21        15        31     9      180.000000        0.065320         2
         2        21        15        31     9        0.000000       -0.063790         3
         2        21        15        31     9      180.000000        0.031607         4
         3         1         8         9     9        0.000000       -0.101773         1
         3         1         8         9     9      180.000000       17.261374         2
         3         1         8         9     9        0.000000       -1.245547         3
         3         1         8         9     9      180.000000       -0.369105         4
         3         1         8        17     9        0.000000        0.202544         1
         3         1         8        17     9      180.000000       22.811181         2
         3         1         8        17     9        0.000000        0.550755         3
         3         1         8        17     9      180.000000       -0.701551         4
         3        14        10         9     9        0.000000       -0.019541         1
         3        14        10         9     9      180.000000       17.479613         2
         3        14        10         9     9        0.000000       -1.174083         3
         3        14        10         9     9      180.000000       -0.342804         4
         3        14        10        25     9        0.000000        0.103760         1
         3        14        10        25     9      180.000000       12.825624         2
         3        14        10        25     9        0.000000       -0.551225         3
         3        14        10        25     9      180.000000        0.193193         4
         3        14        18        13     9        0.000000        0.381500         1
         3        14        18        13     9      180.000000        2.030263         2
         3        14        18        13     9        0.000000        0.322851         3
         3        14        18        13     9      180.000000       -0.088607         4
         4        19        12         6     9        0.000000       -0.312190         1
         4        19        12         6     9      180.000000       20.672500         2
         4        19        12         6     9        0.000000       -1.477243         3
         4        19        12         6     9      180.000000       -0.193620         4
         4        19        12        28     9        0.000000        0.423514         1
         4        19        12        28     9      180.000000       18.549789         2
         4        19        12        28     9        0.000000       -0.118459         3
         4        19        12        28     9      180.000000       -0.167505         4
         4        22        11         6     9        0.000000       -0.207382         1
         4        22        11         6     9      180.000000       12.684698         2
         4        22        11         6     9        0.000000       -0.607031         3
         4        22        11         6     9      180.000000       -0.027155         4
         4        22        11        21     9        0.000000        0.077637         1
         4        22        11        21     9      180.000000       16.088900         2
         4        22        11        21     9        0.000000        0.539964         3
         4        22        11        21     9      180.000000       -0.472364         4
         4        23         5        33     9        0.000000        1.957470         1
         4        23         5        33     9      180.000000       -0.362409         2
         4        23         5        33     9        0.000000        0.610817         3
         4        23         5        33     9      180.000000        0.074982         4
         4        23         5        38     9        0.000000        0.921541         1
         4        23         5        38     9      180.000000       -0.429243         2
         4        23         5        38     9        0.000000        1.145652         3
         4        23         5        38     9      180.000000        0.010500         4
         4        23         5        42     9        0.000000        0.921541         1
         4        23         5        42     9      180.000000       -0.429243         2
         4        23         5        42     9        0.000000        1.145652         3
         4        23         5        42     9      180.000000        0.010500         4
         5        23         4        19     9        0.000000        0.983197         1
         5        23         4        19     9      180.000000        7.417155         2
         5        23         4        19     9        0.000000        0.558491         3
         5        23         4        19     9      180.000000       -1.005218         4
         5        23         4        22     9        0.000000        0.395580         1
         5        23         4        22     9      180.000000        7.843858         2
         5        23         4        22     9        0.000000        0.316507         3
         5        23         4        22     9      180.000000       -0.916179         4
         5        33        36        37     9        0.000000        7.203981         1
         5        33        36        37     9      180.000000       -4.124795         2
         5        33        36        37     9        0.000000        1.295162         3
         5        33        36        37     9      180.000000        0.107389         4
         6         7        13        18     9        0.000000       -0.497504         1
         6         7        13        18     9      180.000000       27.319683         2
         6         7        13        18     9        0.000000       -0.115449         3
         6         7        13        18     9      180.000000       -1.532204         4
         6        11        21        15     9        0.000000       -0.050397         1
         6        11        21        15     9      180.000000        8.743513         2
         6        11        21        15     9        0.000000       -0.084403         3
         6        11        21        15     9      180.000000        0.163001         4
         7         6        11        21     9        0.000000        0.271751         1
         7         6        11        21     9      180.000000       13.019174         2
         7         6        11        21     9        0.000000       -0.097225         3
         7         6        11        21     9      180.000000       -0.452989         4
         7         6        11        22     9        0.000000        0.243281         1
         7         6        11        22     9      180.000000       12.147153         2
         7         6        11        22     9        0.000000        0.116762         3
         7         6        11        22     9      180.000000       -0.315394         4
         7         6        12        19     9        0.000000        0.053590         1
         7         6        12        19     9      180.000000       13.801629         2
         7         6        12        19     9        0.000000        0.038101         3
         7         6        12        19     9      180.000000       -0.484393         4
         7         6        12        28     9        0.000000        0.127456         1
         7         6        12        28     9      180.000000       12.064266         2
         7         6        12        28     9        0.000000        0.196633         3
         7         6        12        28     9      180.000000       -0.111756         4
         7        13         2        20     9        0.000000        0.484356         1
         7        13         2        20     9      180.000000        5.076079         2
         7        13         2        20     9        0.000000       -0.049823         3
         7        13         2        20     9      180.000000       -0.379185         4
         7        13         2        21     9        0.000000        1.749896         1
         7        13         2        21     9      180.000000        2.060494         2
         7        13         2        21     9        0.000000        0.186700         3
         7        13         2        21     9      180.000000        0.011112         4
         7        13        18        14     9        0.000000       -0.338245         1
         7        13        18        14     9      180.000000        4.737598         2
         7        13        18        14     9        0.000000       -1.572261         3
         7        13        18        14     9      180.000000        0.139854         4
         8         1         3        14     9        0.000000       -0.159544         1
         8         1         3        14     9      180.000000       17.441704         2
         8         1         3        14     9        0.000000       -1.253452         3
         8         1         3        14     9      180.000000       -0.342164         4
         8         1         3        16     9        0.000000        0.535263         1
         8         1         3        16     9      180.000000       22.924715         2
         8         1         3        16     9        0.000000        0.562820         3
         8         1         3        16     9      180.000000       -0.548398         4
         8         9        10        14     9        0.000000       -0.193831         1
         8         9        10        14     9      180.000000       18.718306         2
         8         9        10        14     9        0.000000       -1.470902         3
         8         9        10        14     9      180.000000       -0.444338         4
         8         9        10        25     9        0.000000        0.152983         1
         8         9        10        25     9      180.000000       14.549564         2
         8         9        10        25     9        0.000000       -0.624238         3
         8         9        10        25     9      180.000000        0.081753         4
         9         8         1        26     9        0.000000        0.181711         1
         9         8         1        26     9      180.000000       12.249439         2
         9         8         1        26     9        0.000000       -0.437418         3
         9         8         1        26     9      180.000000        0.175565         4
         9        10        14        18     9        0.000000        0.435183         1
         9        10        14        18     9      180.000000       18.963855         2
         9        10        14        18     9        0.000000        0.317361         3
         9        10        14        18     9      180.000000       -0.395936         4
        10         9         8        17     9        0.000000        0.505280         1
        10         9         8        17     9      180.000000       23.564142         2
        10         9         8        17     9        0.000000        0.449858         3
        10         9         8        17     9      180.000000       -0.661252         4
        10        14         3        16     9        0.000000        0.586984         1
        10        14         3        16     9      180.000000       18.000233         2
        10        14         3        16     9        0.000000        0.390466         3
        10        14         3        16     9      180.000000       -0.347261         4
        10        14        18        13     9        0.000000       -0.612805         1
        10        14        18        13     9      180.000000        3.389636         2
        10        14        18        13     9        0.000000       -0.690547         3
        10        14        18        13     9      180.000000        0.142857         4
        11         6         7        13     9        0.000000       -0.826772         1
        11         6         7        13     9      180.000000       11.934387         2
        11         6         7        13     9        0.000000       -1.632779         3
        11         6         7        13     9      180.000000       -0.270890         4
        11         6         7        27     9        0.000000        0.189053         1
        11         6         7        27     9      180.000000        8.259443         2
        11         6         7        27     9        0.000000       -0.351834         3
        11         6         7        27     9      180.000000       -0.145856         4
        11         6        12        19     9        0.000000        0.120187         1
        11         6        12        19     9      180.000000       14.529399         2
        11         6        12        19     9        0.000000       -0.251747         3
        11         6        12        19     9      180.000000       -0.405523         4
        11         6        12        28     9        0.000000        0.230650         1
        11         6        12        28     9      180.000000       12.133660         2
        11         6        12        28     9        0.000000       -0.228558         3
        11         6        12        28     9      180.000000       -0.225536         4
        11        21         2        13     9        0.000000       -1.663258         1
        11        21         2        13     9      180.000000        4.444697         2
        11        21         2        13     9        0.000000        0.003079         3
        11        21         2        13     9      180.000000        0.128984         4
        11        21         2        20     9        0.000000        0.404651         1
        11        21         2        20     9      180.000000       10.253575         2
        11        21         2        20     9        0.000000       -0.624800         3
        11        21         2        20     9      180.000000       -0.263647         4
        11        21        15        29     9        0.000000       -0.080948         1
        11        21        15        29     9      180.000000        0.032923         2
        11        21        15        29     9        0.000000       -0.114814         3
        11        21        15        29     9      180.000000        0.048772         4
        11        21        15        30     9        0.000000       -0.080948         1
        11        21        15        30     9      180.000000        0.032923         2
        11        21        15        30     9        0.000000       -0.114814         3
        11        21        15        30     9      180.000000        0.048772         4
        11        21        15        31     9        0.000000       -0.080948         1
        11        21        15        31     9      180.000000        0.032923         2
        11        21        15        31     9        0.000000       -0.114814         3
        11        21        15        31     9      180.000000        0.048772         4
        11        22         4        19     9        0.000000        0.946721         1
        11        22         4        19     9      180.000000       10.662192         2
        11        22         4        19     9        0.000000        0.575620         3
        11        22         4        19     9      180.000000       -0.427952         4
        11        22         4        23     9        0.000000        0.679493         1
        11        22         4        23     9      180.000000       16.842727         2
        11        22         4        23     9        0.000000        0.424235         3
        11        22         4        23     9      180.000000       -1.086063         4
        12         6         7        13     9        0.000000       -0.634575         1
        12         6         7        13     9      180.000000        8.759010         2
        12         6         7        13     9        0.000000       -0.845770         3
        12         6         7        13     9      180.000000        0.024155         4
        12         6         7        27     9        0.000000       -0.791132         1
        12         6         7        27     9      180.000000        4.791638         2
        12         6         7        27     9        0.000000       -0.385138         3
        12         6         7        27     9      180.000000       -0.055927         4
        12         6        11        21     9        0.000000       -0.337589         1
        12         6        11        21     9      180.000000       11.800445         2
        12         6        11        21     9        0.000000       -0.308271         3
        12         6        11        21     9      180.000000       -0.346716         4
        12         6        11        22     9        0.000000        0.052684         1
        12         6        11        22     9      180.000000       11.006057         2
        12         6        11        22     9        0.000000        0.146619         3
        12         6        11        22     9      180.000000       -0.271446         4
        12        19         4        22     9        0.000000        0.787262         1
        12        19         4        22     9      180.000000       10.174807         2
        12        19         4        22     9        0.000000        0.707294         3
        12        19         4        22     9      180.000000       -0.544368         4
        12        19         4        23     9        0.000000        1.370882         1
        12        19         4        23     9      180.000000       15.457086         2
        12        19         4        23     9        0.000000        0.473940         3
        12        19         4        23     9      180.000000       -0.944338         4
        13         2        21        15     9        0.000000        0.463791         1
        13         2        21        15     9      180.000000        9.121670         2
        13         2        21        15     9        0.000000        0.308329         3
        13         2        21        15     9      180.000000        0.001685         4
        14         3         1        26     9        0.000000        0.204291         1
        14         3         1        26     9      180.000000       12.330683         2
        14         3         1        26     9        0.000000       -0.429751         3
        14         3         1        26     9      180.000000        0.180492         4
        14        10         9        24     9        0.000000        0.085472         1
        14        10         9        24     9      180.000000       14.240723         2
        14        10         9        24     9        0.000000       -0.502524         3
        14        10         9        24     9      180.000000        0.093111         4
        15        21         2        20     9        0.000000       -0.626933         1
        15        21         2        20     9      180.000000       11.384754         2
        15        21         2        20     9        0.000000       -1.173841         3
        15        21         2        20     9      180.000000        0.509300         4
        15        21        11        22     9        0.000000       -0.911339         1
        15        21        11        22     9      180.000000        9.964527         2
        15        21        11        22     9        0.000000       -0.164732         3
        15        21        11        22     9      180.000000        0.215696         4
        16         3         1        26     9        0.000000        0.356407         1
        16         3         1        26     9      180.000000       15.755417         2
        16         3         1        26     9        0.000000        0.173168         3
        16         3         1        26     9      180.000000        0.272104         4
        16         3        14        18     9        0.000000       -0.107429         1
        16         3        14        18     9      180.000000       20.900297         2
        16         3        14        18     9        0.000000        0.246361         3
        16         3        14        18     9      180.000000       -0.890880         4
        17         8         1        26     9        0.000000        0.302040         1
        17         8         1        26     9      180.000000       14.938911         2
        17         8         1        26     9        0.000000        0.256433         3
        17         8         1        26     9      180.000000        0.230067         4
        17         8         9        24     9        0.000000        0.256909         1
        17         8         9        24     9      180.000000       16.033530         2
        17         8         9        24     9        0.000000        0.305426         3
        17         8         9        24     9      180.000000        0.139760         4
        18        13         2        20     9        0.000000       -1.917023         1
        18        13         2        20     9      180.000000       10.924892         2
        18        13         2        20     9        0.000000       -0.430673         3
        18        13         2        20     9      180.000000       -0.290223         4
        18        13         2        21     9        0.000000        0.111385         1
        18        13         2        21     9      180.000000        7.207314         2
        18        13         2        21     9        0.000000        0.351182         3
        18        13         2        21     9      180.000000        0.012035         4
        18        13         7        27     9        0.000000        0.155001         1
        18        13         7        27     9      180.000000       19.751095         2
        18        13         7        27     9        0.000000        0.160795         3
        18        13         7        27     9      180.000000       -0.191934         4
        18        14        10        25     9        0.000000        0.172923         1
        18        14        10        25     9      180.000000       14.279827         2
        18        14        10        25     9        0.000000        0.166673         3
        18        14        10        25     9      180.000000        0.327322         4
        19         4        23        32     9        0.000000       -0.793420         1
        19         4        23        32     9      180.000000       10.524336         2
        19         4        23        32     9        0.000000       -0.519875         3
        19         4        23        32     9      180.000000       -0.518345         4
        22         4        23        32     9        0.000000        0.742497         1
        22         4        23        32     9      180.000000       10.601616         2
        22         4        23        32     9        0.000000       -0.618808         3
        22         4        23        32     9      180.000000       -0.359894         4
        23         5        33        34     9        0.000000       -0.199914         1
        23         5        33        34     9      180.000000        0.224031         2
        23         5        33        34     9        0.000000        0.693475         3
        23         5        33        34     9      180.000000        0.009125         4
        23         5        33        35     9        0.000000       -0.199914         1
        23         5        33        35     9      180.000000        0.224033         2
        23         5        33        35     9        0.000000        0.693476         3
        23         5        33        35     9      180.000000        0.009125         4
        23         5        33        36     9        0.000000        2.662606         1
        23         5        33        36     9      180.000000       -1.615778         2
        23         5        33        36     9        0.000000        0.552541         3
        23         5        33        36     9      180.000000       -0.236718         4
        23         5        38        39     9        0.000000        0.057857         1
        23         5        38        39     9      180.000000        0.012274         2
        23         5        38        39     9        0.000000        0.462875         3
        23         5        38        39     9      180.000000        0.033216         4
        23         5        38        40     9        0.000000        0.057857         1
        23         5        38        40     9      180.000000        0.012274         2
        23         5        38        40     9        0.000000        0.462875         3
        23         5        38        40     9      180.000000        0.033216         4
        23         5        38        41     9        0.000000        0.057857         1
        23         5        38        41     9      180.000000        0.012274         2
        23         5        38        41     9        0.000000        0.462875         3
        23         5        38        41     9      180.000000        0.033216         4
        23         5        42        43     9        0.000000        0.057857         1
        23         5        42        43     9      180.000000        0.012274         2
        23         5        42        43     9        0.000000        0.462875         3
        23         5        42        43     9      180.000000        0.033216         4
        23         5        42        44     9        0.000000        0.057857         1
        23         5        42        44     9      180.000000        0.012274         2
        23         5        42        44     9        0.000000        0.462875         3
        23         5        42        44     9      180.000000        0.033216         4
        23         5        42        45     9        0.000000        0.057857         1
        23         5        42        45     9      180.000000        0.012274         2
        23         5        42        45     9        0.000000        0.462875         3
        23         5        42        45     9      180.000000        0.033216         4
        24         9        10        25     9        0.000000       -0.156577         1
        24         9        10        25     9      180.000000       11.949669         2
        24         9        10        25     9        0.000000       -0.717197         3
        24         9        10        25     9      180.000000        0.181692         4
        32        23         5        33     9        0.000000       -0.442516         1
        32        23         5        33     9      180.000000       -1.010433         2
        32        23         5        33     9        0.000000        0.262977         3
        32        23         5        33     9      180.000000       -0.110098         4
        32        23         5        38     9        0.000000       -0.520632         1
        32        23         5        38     9      180.000000        0.372737         2
        32        23         5        38     9        0.000000        0.055875         3
        32        23         5        38     9      180.000000       -0.040308         4
        32        23         5        42     9        0.000000       -0.520632         1
        32        23         5        42     9      180.000000        0.372737         2
        32        23         5        42     9        0.000000        0.055875         3
        32        23         5        42     9      180.000000       -0.040308         4
        33         5        38        39     9        0.000000       -0.090604         1
        33         5        38        39     9      180.000000        0.027094         2
        33         5        38        39     9        0.000000        0.285082         3
        33         5        38        39     9      180.000000        0.036631         4
        33         5        38        40     9        0.000000       -0.090604         1
        33         5        38        40     9      180.000000        0.027094         2
        33         5        38        40     9        0.000000        0.285082         3
        33         5        38        40     9      180.000000        0.036631         4
        33         5        38        41     9        0.000000       -0.090604         1
        33         5        38        41     9      180.000000        0.027094         2
        33         5        38        41     9        0.000000        0.285082         3
        33         5        38        41     9      180.000000        0.036631         4
        33         5        42        43     9        0.000000       -0.090604         1
        33         5        42        43     9      180.000000        0.027094         2
        33         5        42        43     9        0.000000        0.285082         3
        33         5        42        43     9      180.000000        0.036631         4
        33         5        42        44     9        0.000000       -0.090604         1
        33         5        42        44     9      180.000000        0.027094         2
        33         5        42        44     9        0.000000        0.285082         3
        33         5        42        44     9      180.000000        0.036631         4
        33         5        42        45     9        0.000000       -0.090604         1
        33         5        42        45     9      180.000000        0.027094         2
        33         5        42        45     9        0.000000        0.285082         3
        33         5        42        45     9      180.000000        0.036631         4
        34        33         5        38     9        0.000000       -0.162668         1
        34        33         5        38     9      180.000000       -0.039242         2
        34        33         5        38     9        0.000000        0.783485         3
        34        33         5        38     9      180.000000        0.061808         4
        34        33         5        42     9        0.000000       -0.162668         1
        34        33         5        42     9      180.000000       -0.039242         2
        34        33         5        42     9        0.000000        0.783485         3
        34        33         5        42     9      180.000000        0.061808         4
        34        33        36        37     9        0.000000       -0.197432         1
        34        33        36        37     9      180.000000       -0.031581         2
        34        33        36        37     9        0.000000        0.950201         3
        34        33        36        37     9      180.000000        0.141196         4
        35        33         5        38     9        0.000000       -0.162667         1
        35        33         5        38     9      180.000000       -0.039243         2
        35        33         5        38     9        0.000000        0.783485         3
        35        33         5        38     9      180.000000        0.061808         4
        35        33         5        42     9        0.000000       -0.162667         1
        35        33         5        42     9      180.000000       -0.039243         2
        35        33         5        42     9        0.000000        0.783485         3
        35        33         5        42     9      180.000000        0.061808         4
        35        33        36        37     9        0.000000       -0.197431         1
        35        33        36        37     9      180.000000       -0.031580         2
        35        33        36        37     9        0.000000        0.950201         3
        35        33        36        37     9      180.000000        0.141196         4
        36        33         5        38     9        0.000000        0.543738         1
        36        33         5        38     9      180.000000        0.573557         2
        36        33         5        38     9        0.000000        0.818073         3
        36        33         5        38     9      180.000000       -0.003682         4
        36        33         5        42     9        0.000000        0.543738         1
        36        33         5        42     9      180.000000        0.573557         2
        36        33         5        42     9        0.000000        0.818073         3
        36        33         5        42     9      180.000000       -0.003682         4
        38         5        42        43     9        0.000000       -0.083069         1
        38         5        42        43     9      180.000000        0.033653         2
        38         5        42        43     9        0.000000        0.494731         3
        38         5        42        43     9      180.000000        0.058908         4
        38         5        42        44     9        0.000000       -0.083069         1
        38         5        42        44     9      180.000000        0.033653         2
        38         5        42        44     9        0.000000        0.494731         3
        38         5        42        44     9      180.000000        0.058908         4
        38         5        42        45     9        0.000000       -0.083069         1
        38         5        42        45     9      180.000000        0.033653         2
        38         5        42        45     9        0.000000        0.494731         3
        38         5        42        45     9      180.000000        0.058908         4
        39        38         5        42     9        0.000000       -0.083069         1
        39        38         5        42     9      180.000000        0.033653         2
        39        38         5        42     9        0.000000        0.494731         3
        39        38         5        42     9      180.000000        0.058908         4
        40        38         5        42     9        0.000000       -0.083069         1
        40        38         5        42     9      180.000000        0.033653         2
        40        38         5        42     9        0.000000        0.494731         3
        40        38         5        42     9      180.000000        0.058908         4
        41        38         5        42     9        0.000000       -0.083069         1
        41        38         5        42     9      180.000000        0.033653         2
        41        38         5        42     9        0.000000        0.494731         3
        41        38         5        42     9      180.000000        0.058908         4

[ dihedrals ] ; impropers
;       ai        aj        ak        al funct           phase               k        pn
         2        13        20        21     4      180.000000       20.883038         2
         2        20        21        13     4      180.000000       20.883038         2
         2        21        13        20     4      180.000000       20.883038         2
         4        19        22        23     4      180.000000       27.893333         2
         4        22        23        19     4      180.000000       27.893333         2
         4        23        19        22     4      180.000000       27.893333         2
         7         6        13        27     4      180.000000        2.344824         2
         7        13        27         6     4      180.000000        2.344824         2
         7        27         6        13     4      180.000000        2.344824         2
         8         1         9        17     4      180.000000        0.457749         2
         8         9        17         1     4      180.000000        0.457749         2
         8        17         1         9     4      180.000000        0.457749         2
        10         9        14        25     4      180.000000        1.019580         2
        10        14        25         9     4      180.000000        1.019580         2
        10        25         9        14     4      180.000000        1.019580         2
        11         6        21        22     4      180.000000       14.443995         2
        11        21        22         6     4      180.000000       14.443995         2
        11        22         6        21     4      180.000000       14.443995         2
        12         6        19        28     4      180.000000       13.756679         2
        12        19        28         6     4      180.000000       13.756679         2
        12        28         6        19     4      180.000000       13.756679         2

[ pairs ]
;       ai        aj funct
         1        10     1
         1        18     1
         1        24     1
         2         6     1
         2        14     1
         2        22     1
         2        27     1
         2        29     1
         2        30     1
         2        31     1
         3         9     1
         3        13     1
         3        17     1
         3        25     1
         4         6     1
         4        21     1
         4        28     1
         4        33     1
         4        38     1
         4        42     1
         5        19     1
         5        22     1
         5        37     1
         6        15     1
         6        18     1
         7        14     1
         7        19     1
         7        20     1
         7        21     1
         7        22     1
         7        28     1
         8        14     1
         8        16     1
         8        25     1
         9        18     1
         9        26     1
        10        13     1
        10        16     1
        10        17     1
        11        13     1
        11        19     1
        11        20     1
        11        23     1
        11        27     1
        11        28     1
        11        29     1
        11        30     1
        11        31     1
        12        13     1
        12        21     1
        12        22     1
        12        23     1
        12        27     1
        13        15     1
        14        24     1
        14        26     1
        15        20     1
        15        22     1
        16        18     1
        16        26     1
        17        24     1
        17        26     1
        18        20     1
        18        21     1
        18        25     1
        18        27     1
        19        32     1
        22        32     1
        23        34     1
        23        35     1
        23        36     1
        23        39     1
        23        40     1
        23        41     1
        23        43     1
        23        44     1
        23        45     1
        24        25     1
        32        33     1
        32        38     1
        32        42     1
        33        39     1
        33        40     1
        33        41     1
        33        43     1
        33        44     1
        33        45     1
        34        37     1
        34        38     1
        34        42     1
        35        37     1
        35        38     1
        35        42     1
        36        38     1
        36        42     1
        38        43     1
        38        44     1
        38        45     1
        39        42     1
        40        42     1
        41        42     1
