; ITP file created by ByteFF-ML, 2026-02-21 08:21:44.641251

[ atomtypes ]
;name           bonded.type        at.num        mass        charge   ptype           sigma         epsilon
 c0bf                                   6      0.0000       0.00000       A     3.31468e-01     4.12718e-01
 c1bf                                   6      0.0000       0.00000       A     3.31426e-01     4.13955e-01
 c2bf                                   6      0.0000       0.00000       A     3.31482e-01     4.13404e-01
 c3bf                                   6      0.0000       0.00000       A     3.31444e-01     4.11114e-01
 c4bf                                   6      0.0000       0.00000       A     3.39895e-01     4.48859e-01
 c5bf                                   6      0.0000       0.00000       A     3.31327e-01     4.13299e-01
 c6bf                                   6      0.0000       0.00000       A     3.31646e-01     4.12777e-01
 c7bf                                   6      0.0000       0.00000       A     3.31488e-01     4.13497e-01
 c8bf                                   6      0.0000       0.00000       A     3.31494e-01     4.12507e-01
 c9bf                                   6      0.0000       0.00000       A     3.31504e-01     4.12314e-01
 c10bf                                  6      0.0000       0.00000       A     3.31395e-01     4.13486e-01
 c11bf                                  6      0.0000       0.00000       A     3.31273e-01     4.14091e-01
 c12bf                                  6      0.0000       0.00000       A     3.31255e-01     4.17977e-01
 c13bf                                  6      0.0000       0.00000       A     3.31474e-01     4.12750e-01
 c14bf                                  6      0.0000       0.00000       A     3.39751e-01     4.51327e-01
 f15bf                                  9      0.0000       0.00000       A     3.03295e-01     3.47905e-01
 f16bf                                  9      0.0000       0.00000       A     3.03414e-01     3.47611e-01
 o17bf                                  8      0.0000       0.00000       A     3.16224e-01     3.10258e-01
 n18bf                                  7      0.0000       0.00000       A     3.38436e-01     3.93319e-01
 o19bf                                  8      0.0000       0.00000       A     3.04735e-01     6.10225e-01
 n20bf                                  7      0.0000       0.00000       A     3.18016e-01     6.83025e-01
 n21bf                                  7      0.0000       0.00000       A     3.38419e-01     3.92373e-01
 n22bf                                  7      0.0000       0.00000       A     3.28165e-01     6.46560e-01
 h23bf                                  1      0.0000       0.00000       A     2.62547e-01     6.71514e-02
 h24bf                                  1      0.0000       0.00000       A     2.62373e-01     6.68945e-02
 h25bf                                  1      0.0000       0.00000       A     2.62520e-01     6.71642e-02
 h26bf                                  1      0.0000       0.00000       A     2.62452e-01     6.74148e-02
 h27bf                                  1      0.0000       0.00000       A     2.53572e-01     6.74323e-02
 h28bf                                  1      0.0000       0.00000       A     2.42633e-01     8.85340e-02
 h29bf                                  1      0.0000       0.00000       A     2.42068e-01     8.71789e-02
 h30bf                                  1      0.0000       0.00000       A     2.42068e-01     8.71789e-02
 h31bf                                  1      0.0000       0.00000       A     2.42068e-01     8.71789e-02
 h32bf                                  1      0.0000       0.00000       A     1.10338e-01     4.09855e-02
 c33bf                                  6      0.0000       0.00000       A     3.39795e-01     4.50115e-01
 h34bf                                  1      0.0000       0.00000       A     2.59974e-01     8.72364e-02
 h35bf                                  1      0.0000       0.00000       A     2.59974e-01     8.72364e-02
 h36bf                                  1      0.0000       0.00000       A     2.59974e-01     8.72364e-02
 c37bf                                  6      0.0000       0.00000       A     3.39871e-01     4.51678e-01
 h38bf                                  1      0.0000       0.00000       A     2.42215e-01     8.69618e-02
 h39bf                                  1      0.0000       0.00000       A     2.42215e-01     8.69618e-02
 n40bf                                  7      0.0000       0.00000       A     3.20637e-01     8.50391e-01
 n41bf                                  7      0.0000       0.00000       A     3.38300e-01     3.92424e-01
 c42bf                                  6      0.0000       0.00000       A     3.31647e-01     4.13645e-01
 n43bf                                  7      0.0000       0.00000       A     3.38640e-01     3.92296e-01
 n44bf                                  7      0.0000       0.00000       A     3.38375e-01     3.90261e-01
 h45bf                                  1      0.0000       0.00000       A     2.45157e-01     6.87236e-02

[ moleculetype ]
;name             nrexcl
 3fmk                  3

[ atoms ]
;       nr            type      resi   res      atom      cgnr      charge          mass ; qtot
         1            c0bf         1   UNL        c0         1    -0.17396       12.0110 ; qtot   -0.174
         2            c1bf         1   UNL        c1         2     0.56377       12.0110 ; qtot    0.390
         3            c2bf         1   UNL        c2         3     0.17941       12.0110 ; qtot    0.569
         4            c3bf         1   UNL        c3         4     0.41234       12.0110 ; qtot    0.982
         5            c4bf         1   UNL        c4         5     0.22885       12.0110 ; qtot    1.210
         6            c5bf         1   UNL        c5         6    -0.27925       12.0110 ; qtot    0.931
         7            c6bf         1   UNL        c6         7    -0.09552       12.0110 ; qtot    0.836
         8            c7bf         1   UNL        c7         8     0.18085       12.0110 ; qtot    1.016
         9            c8bf         1   UNL        c8         9    -0.14500       12.0110 ; qtot    0.871
        10            c9bf         1   UNL        c9        10    -0.07757       12.0110 ; qtot    0.794
        11           c10bf         1   UNL       c10        11     0.30737       12.0110 ; qtot    1.101
        12           c11bf         1   UNL       c11        12     0.20499       12.0110 ; qtot    1.306
        13           c12bf         1   UNL       c12        13     0.00731       12.0110 ; qtot    1.314
        14           c13bf         1   UNL       c13        14     0.05605       12.0110 ; qtot    1.370
        15           c14bf         1   UNL       c14        15     0.08123       12.0110 ; qtot    1.451
        16           f15bf         1   UNL       f15        16    -0.16069       18.9980 ; qtot    1.290
        17           f16bf         1   UNL       f16        17    -0.17407       18.9980 ; qtot    1.116
        18           o17bf         1   UNL       o17        18    -0.21226       15.9990 ; qtot    0.904
        19           n18bf         1   UNL       n18        19    -0.25258       14.0070 ; qtot    0.651
        20           o19bf         1   UNL       o19        20    -0.53096       15.9990 ; qtot    0.120
        21           n20bf         1   UNL       n20        21    -0.36663       14.0070 ; qtot   -0.246
        22           n21bf         1   UNL       n21        22    -0.30841       14.0070 ; qtot   -0.555
        23           n22bf         1   UNL       n22        23    -0.89951       14.0070 ; qtot   -1.454
        24           h23bf         1   UNL       h23        24     0.14202        1.0080 ; qtot   -1.312
        25           h24bf         1   UNL       h24        25     0.14072        1.0080 ; qtot   -1.172
        26           h25bf         1   UNL       h25        26     0.15735        1.0080 ; qtot   -1.014
        27           h26bf         1   UNL       h26        27     0.20692        1.0080 ; qtot   -0.807
        28           h27bf         1   UNL       h27        28     0.02838        1.0080 ; qtot   -0.779
        29           h28bf         1   UNL       h28        29     0.07619        1.0080 ; qtot   -0.703
        30           h29bf         1   UNL       h29        30     0.06198        1.0080 ; qtot   -0.641
        31           h30bf         1   UNL       h30        31     0.06198        1.0080 ; qtot   -0.579
        32           h31bf         1   UNL       h31        32     0.06198        1.0080 ; qtot   -0.517
        33           h32bf         1   UNL       h32        33     0.49474        1.0080 ; qtot   -0.022
        34           c33bf         1   UNL       c33        34    -0.10894       12.0110 ; qtot   -0.131
        35           h34bf         1   UNL       h34        35     0.04787        1.0080 ; qtot   -0.083
        36           h35bf         1   UNL       h35        36     0.04787        1.0080 ; qtot   -0.035
        37           h36bf         1   UNL       h36        37     0.04787        1.0080 ; qtot    0.013
        38           c37bf         1   UNL       c37        38     0.07582       12.0110 ; qtot    0.089
        39           h38bf         1   UNL       h38        39     0.08492        1.0080 ; qtot    0.173
        40           h39bf         1   UNL       h39        40     0.08492        1.0080 ; qtot    0.258
        41           n40bf         1   UNL       n40        41     0.22580       14.0070 ; qtot    0.484
        42           n41bf         1   UNL       n41        42    -0.50677       14.0070 ; qtot   -0.023
        43           c42bf         1   UNL       c42        43     0.48194       12.0110 ; qtot    0.459
        44           n43bf         1   UNL       n43        44    -0.37700       14.0070 ; qtot    0.082
        45           n44bf         1   UNL       n44        45    -0.16443       14.0070 ; qtot   -0.082
        46           h45bf         1   UNL       h45        46     0.08211        1.0080 ; qtot   -0.000

[ bonds ]
;       ai        aj funct               r               k
         1         3     1        0.139038   316524.477588
         1         8     1        0.139274   306854.774512
         1        26     1        0.108387   329224.337451
         2        13     1        0.147699   176240.708545
         2        20     1        0.123181   585119.222852
         2        21     1        0.141002   186312.748779
         3        14     1        0.139881   278838.982227
         3        16     1        0.134995   302917.054395
         4        19     1        0.136183   236805.283252
         4        22     1        0.134707   275143.200684
         4        23     1        0.136032   330501.218457
         5        23     1        0.146291   199042.078467
         5        29     1        0.109311   304022.504785
         5        34     1        0.153153   185907.117334
         5        38     1        0.154187   167533.320361
         6         7     1        0.143064   268512.132715
         6        11     1        0.141899   250529.845166
         6        12     1        0.140364   289463.211377
         7        13     1        0.135694   413732.097314
         7        27     1        0.108546   321757.107910
         8         9     1        0.139128   306394.902246
         8        17     1        0.135607   292150.787842
         9        10     1        0.139766   317517.437012
         9        24     1        0.108444   326597.692529
        10        14     1        0.139462   301245.318604
        10        25     1        0.108442   325811.353857
        11        21     1        0.137734   269428.506348
        11        22     1        0.133549   325950.914160
        12        19     1        0.132480   375866.335498
        12        28     1        0.108990   309472.404834
        13        18     1        0.136853   261929.253271
        14        18     1        0.138211   245996.574121
        15        21     1        0.147084   183535.677515
        15        30     1        0.108968   310419.857129
        15        31     1        0.108968   310419.857129
        15        32     1        0.108968   310419.857129
        23        33     1        0.101204   418692.399902
        34        35     1        0.109331   302760.358691
        34        36     1        0.109331   302760.358691
        34        37     1        0.109331   302760.358691
        38        39     1        0.109165   306017.719141
        38        40     1        0.109165   306017.719141
        38        41     1        0.145815   203706.086743
        41        42     1        0.133392   254661.187646
        41        45     1        0.133180   224260.127197
        42        43     1        0.133198   336834.319434
        43        44     1        0.135699   256980.365771
        43        46     1        0.108072   339212.845801
        44        45     1        0.131481   302697.716162

[ angles ]
;       ai        aj        ak funct           theta             cth
         1         3        14     1      121.913330      589.890372
         1         3        16     1      119.021118      546.594501
         1         8         9     1      122.381203      586.088790
         1         8        17     1      118.423096      577.916724
         2        13         7     1      122.040298      724.098161
         2        13        18     1      116.128212      320.885526
         2        21        11     1      122.920120      568.423686
         2        21        15     1      117.580322      599.849206
         3         1         8     1      117.606956      745.241738
         3         1        26     1      120.750504      415.603623
         3        14        10     1      118.750526      612.866939
         3        14        18     1      120.038025      362.403759
         4        19        12     1      115.933044      928.209764
         4        22        11     1      116.538528      747.927540
         4        23         5     1      124.745766      469.460365
         4        23        33     1      114.074509      488.586255
         5        23        33     1      117.834061      416.576970
         5        34        35     1      110.551529      504.211934
         5        34        36     1      110.551529      504.211902
         5        34        37     1      110.551529      504.211902
         5        38        39     1      110.114487      458.719840
         5        38        40     1      110.114487      458.719840
         5        38        41     1      111.985306      573.442878
         6         7        13     1      119.936729      510.649743
         6         7        27     1      120.067749      410.568215
         6        11        21     1      119.362831      603.865172
         6        11        22     1      122.292007      733.767085
         6        12        19     1      123.603409      736.991336
         6        12        28     1      119.657028      407.706304
         7         6        11     1      119.795570      690.076857
         7         6        12     1      125.003014      442.828895
         7        13        18     1      121.720322      450.152427
         8         1        26     1      121.558578      415.206138
         8         9        10     1      118.578598      692.396968
         8         9        24     1      119.971153      420.856319
         9         8        17     1      119.175308      576.491115
         9        10        14     1      120.569313      694.362878
         9        10        25     1      120.676376      412.191418
        10         9        24     1      121.452782      418.521557
        10        14        18     1      120.941628      501.739750
        11         6        12     1      115.053856      847.730585
        11        21        15     1      119.135315      531.964866
        13         2        20     1      122.794418      308.084125
        13         2        21     1      115.680214      669.218912
        13         7        27     1      120.082497      430.961513
        13        18        14     1      118.724243      413.969854
        14         3        16     1      119.050255      408.388879
        14        10        25     1      118.790672      407.974539
        19         4        22     1      126.274780      628.985516
        19         4        23     1      116.631165      599.567787
        19        12        28     1      116.316788      437.655236
        20         2        21     1      121.284706      608.542102
        21        11        22     1      118.080833      538.548524
        21        15        30     1      109.003319      486.045664
        21        15        31     1      109.003319      486.045664
        21        15        32     1      109.003319      486.045664
        22         4        23     1      116.380028      541.235411
        23         5        29     1      106.948753      486.318815
        23         5        34     1      111.072121      636.325903
        23         5        38     1      109.880249      521.637595
        29         5        34     1      109.057816      484.682589
        29         5        38     1      107.354965      481.070429
        30        15        31     1      109.918945      341.457392
        30        15        32     1      109.918945      341.457392
        31        15        32     1      109.918945      341.457392
        34         5        38     1      111.635666      579.867184
        35        34        36     1      108.462540      359.697304
        35        34        37     1      108.462540      359.697272
        36        34        37     1      108.462540      359.697272
        38        41        42     1      123.166222      568.372740
        38        41        45     1      122.590714      534.022487
        39        38        40     1      109.048172      345.124904
        39        38        41     1      107.145432      569.676856
        40        38        41     1      107.145432      569.676856
        41        42        43     1      101.306137      475.695250
        41        45        44     1      106.203857      642.134573
        42        41        45     1      113.730003      167.360000
        42        43        44     1      112.867569      167.360000
        42        43        46     1      123.074623      371.850861
        43        44        45     1      105.955345      452.659213
        44        43        46     1      123.847595      375.826415

[ dihedrals ] ; propers for gromacs 4.5 or higher, use funct 9
;       ai        aj        ak        al funct           phase               k        pn
         1         3        14        10     9        0.000000       -0.033769         1
         1         3        14        10     9      180.000000       15.070050         2
         1         3        14        10     9        0.000000       -0.822733         3
         1         3        14        10     9      180.000000       -0.166007         4
         1         3        14        18     9        0.000000        0.213515         1
         1         3        14        18     9      180.000000       15.796953         2
         1         3        14        18     9        0.000000        0.046168         3
         1         3        14        18     9      180.000000       -0.230207         4
         1         8         9        10     9        0.000000       -0.084562         1
         1         8         9        10     9      180.000000       17.436868         2
         1         8         9        10     9        0.000000       -1.215052         3
         1         8         9        10     9      180.000000       -0.350359         4
         1         8         9        24     9        0.000000        0.222596         1
         1         8         9        24     9      180.000000       12.990702         2
         1         8         9        24     9        0.000000       -0.533192         3
         1         8         9        24     9      180.000000        0.123340         4
         2        13         7         6     9        0.000000       -0.265137         1
         2        13         7         6     9      180.000000       20.042194         2
         2        13         7         6     9        0.000000       -0.708806         3
         2        13         7         6     9      180.000000       -0.884190         4
         2        13         7        27     9        0.000000       -0.033528         1
         2        13         7        27     9      180.000000       15.197706         2
         2        13         7        27     9        0.000000       -0.108211         3
         2        13         7        27     9      180.000000        0.062165         4
         2        13        18        14     9        0.000000        1.516945         1
         2        13        18        14     9      180.000000        3.262531         2
         2        13        18        14     9        0.000000        1.468404         3
         2        13        18        14     9      180.000000       -0.331072         4
         2        21        11         6     9        0.000000       -0.766423         1
         2        21        11         6     9      180.000000        5.866931         2
         2        21        11         6     9        0.000000       -0.482679         3
         2        21        11         6     9      180.000000        0.187701         4
         2        21        11        22     9        0.000000        0.373236         1
         2        21        11        22     9      180.000000        7.637923         2
         2        21        11        22     9        0.000000        0.443527         3
         2        21        11        22     9      180.000000       -0.212120         4
         2        21        15        30     9        0.000000        0.022638         1
         2        21        15        30     9      180.000000        0.065320         2
         2        21        15        30     9        0.000000       -0.063790         3
         2        21        15        30     9      180.000000        0.031607         4
         2        21        15        31     9        0.000000        0.022638         1
         2        21        15        31     9      180.000000        0.065320         2
         2        21        15        31     9        0.000000       -0.063790         3
         2        21        15        31     9      180.000000        0.031607         4
         2        21        15        32     9        0.000000        0.022638         1
         2        21        15        32     9      180.000000        0.065320         2
         2        21        15        32     9        0.000000       -0.063790         3
         2        21        15        32     9      180.000000        0.031607         4
         3         1         8         9     9        0.000000       -0.101773         1
         3         1         8         9     9      180.000000       17.261374         2
         3         1         8         9     9        0.000000       -1.245547         3
         3         1         8         9     9      180.000000       -0.369105         4
         3         1         8        17     9        0.000000        0.202544         1
         3         1         8        17     9      180.000000       22.811181         2
         3         1         8        17     9        0.000000        0.550755         3
         3         1         8        17     9      180.000000       -0.701551         4
         3        14        10         9     9        0.000000       -0.019541         1
         3        14        10         9     9      180.000000       17.479613         2
         3        14        10         9     9        0.000000       -1.174083         3
         3        14        10         9     9      180.000000       -0.342804         4
         3        14        10        25     9        0.000000        0.103760         1
         3        14        10        25     9      180.000000       12.825624         2
         3        14        10        25     9        0.000000       -0.551225         3
         3        14        10        25     9      180.000000        0.193193         4
         3        14        18        13     9        0.000000        0.381500         1
         3        14        18        13     9      180.000000        2.030263         2
         3        14        18        13     9        0.000000        0.322851         3
         3        14        18        13     9      180.000000       -0.088607         4
         4        19        12         6     9        0.000000       -0.274909         1
         4        19        12         6     9      180.000000       20.701131         2
         4        19        12         6     9        0.000000       -1.441968         3
         4        19        12         6     9      180.000000       -0.202250         4
         4        19        12        28     9        0.000000        0.426188         1
         4        19        12        28     9      180.000000       18.763656         2
         4        19        12        28     9        0.000000       -0.075309         3
         4        19        12        28     9      180.000000       -0.181303         4
         4        22        11         6     9        0.000000       -0.120747         1
         4        22        11         6     9      180.000000       12.732127         2
         4        22        11         6     9        0.000000       -0.579162         3
         4        22        11         6     9      180.000000       -0.035432         4
         4        22        11        21     9        0.000000        0.065510         1
         4        22        11        21     9      180.000000       16.205834         2
         4        22        11        21     9        0.000000        0.562198         3
         4        22        11        21     9      180.000000       -0.454265         4
         4        23         5        29     9        0.000000       -0.586433         1
         4        23         5        29     9      180.000000        0.119769         2
         4        23         5        29     9        0.000000        0.433498         3
         4        23         5        29     9      180.000000        0.106714         4
         4        23         5        34     9        0.000000        0.454611         1
         4        23         5        34     9      180.000000       -0.339104         2
         4        23         5        34     9        0.000000        0.828577         3
         4        23         5        34     9      180.000000       -0.051002         4
         4        23         5        38     9        0.000000       -0.358892         1
         4        23         5        38     9      180.000000       -0.812382         2
         4        23         5        38     9        0.000000        0.556071         3
         4        23         5        38     9      180.000000        0.035023         4
         5        23         4        19     9        0.000000        0.624264         1
         5        23         4        19     9      180.000000        7.481151         2
         5        23         4        19     9        0.000000        0.805846         3
         5        23         4        19     9      180.000000       -1.009146         4
         5        23         4        22     9        0.000000        0.405728         1
         5        23         4        22     9      180.000000        8.016727         2
         5        23         4        22     9        0.000000        0.561602         3
         5        23         4        22     9      180.000000       -0.874956         4
         5        38        41        42     9        0.000000       -0.421075         1
         5        38        41        42     9      180.000000       -0.597610         2
         5        38        41        42     9        0.000000        0.279640         3
         5        38        41        42     9      180.000000       -0.030206         4
         5        38        41        45     9        0.000000       -0.823692         1
         5        38        41        45     9      180.000000       -0.372520         2
         5        38        41        45     9        0.000000        0.106887         3
         5        38        41        45     9      180.000000       -0.023809         4
         6         7        13        18     9        0.000000       -0.497504         1
         6         7        13        18     9      180.000000       27.319683         2
         6         7        13        18     9        0.000000       -0.115449         3
         6         7        13        18     9      180.000000       -1.532204         4
         6        11        21        15     9        0.000000       -0.050397         1
         6        11        21        15     9      180.000000        8.743513         2
         6        11        21        15     9        0.000000       -0.084403         3
         6        11        21        15     9      180.000000        0.163001         4
         7         6        11        21     9        0.000000        0.271751         1
         7         6        11        21     9      180.000000       13.019174         2
         7         6        11        21     9        0.000000       -0.097225         3
         7         6        11        21     9      180.000000       -0.452989         4
         7         6        11        22     9        0.000000        0.239933         1
         7         6        11        22     9      180.000000       12.119659         2
         7         6        11        22     9        0.000000        0.126039         3
         7         6        11        22     9      180.000000       -0.308984         4
         7         6        12        19     9        0.000000        0.046180         1
         7         6        12        19     9      180.000000       13.813030         2
         7         6        12        19     9        0.000000        0.056206         3
         7         6        12        19     9      180.000000       -0.492833         4
         7         6        12        28     9        0.000000        0.127456         1
         7         6        12        28     9      180.000000       12.064266         2
         7         6        12        28     9        0.000000        0.196633         3
         7         6        12        28     9      180.000000       -0.111756         4
         7        13         2        20     9        0.000000        0.484356         1
         7        13         2        20     9      180.000000        5.076079         2
         7        13         2        20     9        0.000000       -0.049823         3
         7        13         2        20     9      180.000000       -0.379185         4
         7        13         2        21     9        0.000000        1.749896         1
         7        13         2        21     9      180.000000        2.060494         2
         7        13         2        21     9        0.000000        0.186700         3
         7        13         2        21     9      180.000000        0.011112         4
         7        13        18        14     9        0.000000       -0.338245         1
         7        13        18        14     9      180.000000        4.737598         2
         7        13        18        14     9        0.000000       -1.572261         3
         7        13        18        14     9      180.000000        0.139854         4
         8         1         3        14     9        0.000000       -0.159544         1
         8         1         3        14     9      180.000000       17.441704         2
         8         1         3        14     9        0.000000       -1.253452         3
         8         1         3        14     9      180.000000       -0.342164         4
         8         1         3        16     9        0.000000        0.535263         1
         8         1         3        16     9      180.000000       22.924715         2
         8         1         3        16     9        0.000000        0.562820         3
         8         1         3        16     9      180.000000       -0.548398         4
         8         9        10        14     9        0.000000       -0.193831         1
         8         9        10        14     9      180.000000       18.718306         2
         8         9        10        14     9        0.000000       -1.470902         3
         8         9        10        14     9      180.000000       -0.444338         4
         8         9        10        25     9        0.000000        0.152983         1
         8         9        10        25     9      180.000000       14.549564         2
         8         9        10        25     9        0.000000       -0.624238         3
         8         9        10        25     9      180.000000        0.081753         4
         9         8         1        26     9        0.000000        0.181711         1
         9         8         1        26     9      180.000000       12.249439         2
         9         8         1        26     9        0.000000       -0.437418         3
         9         8         1        26     9      180.000000        0.175565         4
         9        10        14        18     9        0.000000        0.435183         1
         9        10        14        18     9      180.000000       18.963855         2
         9        10        14        18     9        0.000000        0.317361         3
         9        10        14        18     9      180.000000       -0.395936         4
        10         9         8        17     9        0.000000        0.505280         1
        10         9         8        17     9      180.000000       23.564142         2
        10         9         8        17     9        0.000000        0.449858         3
        10         9         8        17     9      180.000000       -0.661252         4
        10        14         3        16     9        0.000000        0.586984         1
        10        14         3        16     9      180.000000       18.000233         2
        10        14         3        16     9        0.000000        0.390466         3
        10        14         3        16     9      180.000000       -0.347261         4
        10        14        18        13     9        0.000000       -0.612805         1
        10        14        18        13     9      180.000000        3.389636         2
        10        14        18        13     9        0.000000       -0.690547         3
        10        14        18        13     9      180.000000        0.142857         4
        11         6         7        13     9        0.000000       -0.826772         1
        11         6         7        13     9      180.000000       11.934387         2
        11         6         7        13     9        0.000000       -1.632779         3
        11         6         7        13     9      180.000000       -0.270890         4
        11         6         7        27     9        0.000000        0.189053         1
        11         6         7        27     9      180.000000        8.259443         2
        11         6         7        27     9        0.000000       -0.351834         3
        11         6         7        27     9      180.000000       -0.145856         4
        11         6        12        19     9        0.000000        0.113795         1
        11         6        12        19     9      180.000000       14.462058         2
        11         6        12        19     9        0.000000       -0.244803         3
        11         6        12        19     9      180.000000       -0.401322         4
        11         6        12        28     9        0.000000        0.230650         1
        11         6        12        28     9      180.000000       12.133660         2
        11         6        12        28     9        0.000000       -0.228558         3
        11         6        12        28     9      180.000000       -0.225536         4
        11        21         2        13     9        0.000000       -1.663258         1
        11        21         2        13     9      180.000000        4.444697         2
        11        21         2        13     9        0.000000        0.003079         3
        11        21         2        13     9      180.000000        0.128984         4
        11        21         2        20     9        0.000000        0.404651         1
        11        21         2        20     9      180.000000       10.253575         2
        11        21         2        20     9        0.000000       -0.624800         3
        11        21         2        20     9      180.000000       -0.263647         4
        11        21        15        30     9        0.000000       -0.080948         1
        11        21        15        30     9      180.000000        0.032923         2
        11        21        15        30     9        0.000000       -0.114814         3
        11        21        15        30     9      180.000000        0.048772         4
        11        21        15        31     9        0.000000       -0.080948         1
        11        21        15        31     9      180.000000        0.032923         2
        11        21        15        31     9        0.000000       -0.114814         3
        11        21        15        31     9      180.000000        0.048772         4
        11        21        15        32     9        0.000000       -0.080948         1
        11        21        15        32     9      180.000000        0.032923         2
        11        21        15        32     9        0.000000       -0.114814         3
        11        21        15        32     9      180.000000        0.048772         4
        11        22         4        19     9        0.000000        0.965304         1
        11        22         4        19     9      180.000000       10.366906         2
        11        22         4        19     9        0.000000        0.621885         3
        11        22         4        19     9      180.000000       -0.411870         4
        11        22         4        23     9        0.000000        0.808186         1
        11        22         4        23     9      180.000000       16.450832         2
        11        22         4        23     9        0.000000        0.406896         3
        11        22         4        23     9      180.000000       -1.041066         4
        12         6         7        13     9        0.000000       -0.634575         1
        12         6         7        13     9      180.000000        8.759010         2
        12         6         7        13     9        0.000000       -0.845770         3
        12         6         7        13     9      180.000000        0.024155         4
        12         6         7        27     9        0.000000       -0.791132         1
        12         6         7        27     9      180.000000        4.791638         2
        12         6         7        27     9        0.000000       -0.385138         3
        12         6         7        27     9      180.000000       -0.055927         4
        12         6        11        21     9        0.000000       -0.337589         1
        12         6        11        21     9      180.000000       11.800445         2
        12         6        11        21     9        0.000000       -0.308271         3
        12         6        11        21     9      180.000000       -0.346716         4
        12         6        11        22     9        0.000000        0.057810         1
        12         6        11        22     9      180.000000       10.999379         2
        12         6        11        22     9        0.000000        0.156768         3
        12         6        11        22     9      180.000000       -0.270287         4
        12        19         4        22     9        0.000000        0.812201         1
        12        19         4        22     9      180.000000        9.939421         2
        12        19         4        22     9        0.000000        0.726803         3
        12        19         4        22     9      180.000000       -0.518833         4
        12        19         4        23     9        0.000000        1.497164         1
        12        19         4        23     9      180.000000       15.145700         2
        12        19         4        23     9        0.000000        0.454780         3
        12        19         4        23     9      180.000000       -0.873743         4
        13         2        21        15     9        0.000000        0.463791         1
        13         2        21        15     9      180.000000        9.121670         2
        13         2        21        15     9        0.000000        0.308329         3
        13         2        21        15     9      180.000000        0.001685         4
        14         3         1        26     9        0.000000        0.204291         1
        14         3         1        26     9      180.000000       12.330683         2
        14         3         1        26     9        0.000000       -0.429751         3
        14         3         1        26     9      180.000000        0.180492         4
        14        10         9        24     9        0.000000        0.085472         1
        14        10         9        24     9      180.000000       14.240721         2
        14        10         9        24     9        0.000000       -0.502525         3
        14        10         9        24     9      180.000000        0.093111         4
        15        21         2        20     9        0.000000       -0.626933         1
        15        21         2        20     9      180.000000       11.384754         2
        15        21         2        20     9        0.000000       -1.173841         3
        15        21         2        20     9      180.000000        0.509300         4
        15        21        11        22     9        0.000000       -0.911059         1
        15        21        11        22     9      180.000000        9.968058         2
        15        21        11        22     9        0.000000       -0.160427         3
        15        21        11        22     9      180.000000        0.217619         4
        16         3         1        26     9        0.000000        0.356407         1
        16         3         1        26     9      180.000000       15.755417         2
        16         3         1        26     9        0.000000        0.173168         3
        16         3         1        26     9      180.000000        0.272104         4
        16         3        14        18     9        0.000000       -0.107429         1
        16         3        14        18     9      180.000000       20.900297         2
        16         3        14        18     9        0.000000        0.246361         3
        16         3        14        18     9      180.000000       -0.890880         4
        17         8         1        26     9        0.000000        0.302040         1
        17         8         1        26     9      180.000000       14.938911         2
        17         8         1        26     9        0.000000        0.256433         3
        17         8         1        26     9      180.000000        0.230067         4
        17         8         9        24     9        0.000000        0.256909         1
        17         8         9        24     9      180.000000       16.033530         2
        17         8         9        24     9        0.000000        0.305426         3
        17         8         9        24     9      180.000000        0.139760         4
        18        13         2        20     9        0.000000       -1.917023         1
        18        13         2        20     9      180.000000       10.924892         2
        18        13         2        20     9        0.000000       -0.430673         3
        18        13         2        20     9      180.000000       -0.290223         4
        18        13         2        21     9        0.000000        0.111385         1
        18        13         2        21     9      180.000000        7.207314         2
        18        13         2        21     9        0.000000        0.351182         3
        18        13         2        21     9      180.000000        0.012035         4
        18        13         7        27     9        0.000000        0.155001         1
        18        13         7        27     9      180.000000       19.751095         2
        18        13         7        27     9        0.000000        0.160795         3
        18        13         7        27     9      180.000000       -0.191934         4
        18        14        10        25     9        0.000000        0.172923         1
        18        14        10        25     9      180.000000       14.279827         2
        18        14        10        25     9        0.000000        0.166673         3
        18        14        10        25     9      180.000000        0.327322         4
        19         4        23        33     9        0.000000       -0.987009         1
        19         4        23        33     9      180.000000       10.533757         2
        19         4        23        33     9        0.000000       -0.449306         3
        19         4        23        33     9      180.000000       -0.530745         4
        22         4        23        33     9        0.000000        0.418056         1
        22         4        23        33     9      180.000000       10.627080         2
        22         4        23        33     9        0.000000       -0.574487         3
        22         4        23        33     9      180.000000       -0.360192         4
        23         5        34        35     9        0.000000        0.138296         1
        23         5        34        35     9      180.000000        0.077411         2
        23         5        34        35     9        0.000000        0.535503         3
        23         5        34        35     9      180.000000        0.038178         4
        23         5        34        36     9        0.000000        0.138296         1
        23         5        34        36     9      180.000000        0.077410         2
        23         5        34        36     9        0.000000        0.535504         3
        23         5        34        36     9      180.000000        0.038178         4
        23         5        34        37     9        0.000000        0.138296         1
        23         5        34        37     9      180.000000        0.077410         2
        23         5        34        37     9        0.000000        0.535504         3
        23         5        34        37     9      180.000000        0.038178         4
        23         5        38        39     9        0.000000        0.349902         1
        23         5        38        39     9      180.000000        0.104869         2
        23         5        38        39     9        0.000000        0.644580         3
        23         5        38        39     9      180.000000        0.022095         4
        23         5        38        40     9        0.000000        0.349902         1
        23         5        38        40     9      180.000000        0.104869         2
        23         5        38        40     9        0.000000        0.644580         3
        23         5        38        40     9      180.000000        0.022095         4
        23         5        38        41     9        0.000000       -6.332859         1
        23         5        38        41     9      180.000000        0.066682         2
        23         5        38        41     9        0.000000        0.389756         3
        23         5        38        41     9      180.000000       -0.002340         4
        24         9        10        25     9        0.000000       -0.156576         1
        24         9        10        25     9      180.000000       11.949669         2
        24         9        10        25     9        0.000000       -0.717197         3
        24         9        10        25     9      180.000000        0.181692         4
        29         5        23        33     9        0.000000       -0.212922         1
        29         5        23        33     9      180.000000        0.279977         2
        29         5        23        33     9        0.000000        0.286718         3
        29         5        23        33     9      180.000000        0.054200         4
        29         5        34        35     9        0.000000        0.011388         1
        29         5        34        35     9      180.000000        0.063453         2
        29         5        34        35     9        0.000000        0.575901         3
        29         5        34        35     9      180.000000        0.011135         4
        29         5        34        36     9        0.000000        0.011388         1
        29         5        34        36     9      180.000000        0.063452         2
        29         5        34        36     9        0.000000        0.575901         3
        29         5        34        36     9      180.000000        0.011135         4
        29         5        34        37     9        0.000000        0.011388         1
        29         5        34        37     9      180.000000        0.063452         2
        29         5        34        37     9        0.000000        0.575901         3
        29         5        34        37     9      180.000000        0.011135         4
        29         5        38        39     9        0.000000        0.003875         1
        29         5        38        39     9      180.000000        0.138884         2
        29         5        38        39     9        0.000000        0.712501         3
        29         5        38        39     9      180.000000       -0.052531         4
        29         5        38        40     9        0.000000        0.003875         1
        29         5        38        40     9      180.000000        0.138884         2
        29         5        38        40     9        0.000000        0.712501         3
        29         5        38        40     9      180.000000       -0.052531         4
        29         5        38        41     9        0.000000        0.115879         1
        29         5        38        41     9      180.000000       -0.273210         2
        29         5        38        41     9        0.000000        0.555617         3
        29         5        38        41     9      180.000000        0.066237         4
        33        23         5        34     9        0.000000       -0.010999         1
        33        23         5        34     9      180.000000        0.414660         2
        33        23         5        34     9        0.000000        0.169690         3
        33        23         5        34     9      180.000000       -0.040279         4
        33        23         5        38     9        0.000000       -0.611170         1
        33        23         5        38     9      180.000000       -1.560525         2
        33        23         5        38     9        0.000000        0.360883         3
        33        23         5        38     9      180.000000       -0.191876         4
        34         5        38        39     9        0.000000       -0.132973         1
        34         5        38        39     9      180.000000       -0.013288         2
        34         5        38        39     9        0.000000        0.672362         3
        34         5        38        39     9      180.000000        0.046409         4
        34         5        38        40     9        0.000000       -0.132973         1
        34         5        38        40     9      180.000000       -0.013288         2
        34         5        38        40     9        0.000000        0.672362         3
        34         5        38        40     9      180.000000        0.046409         4
        34         5        38        41     9        0.000000       -0.626956         1
        34         5        38        41     9      180.000000        0.608422         2
        34         5        38        41     9        0.000000        0.622707         3
        34         5        38        41     9      180.000000        0.007138         4
        35        34         5        38     9        0.000000       -0.120241         1
        35        34         5        38     9      180.000000        0.046260         2
        35        34         5        38     9        0.000000        0.461859         3
        35        34         5        38     9      180.000000        0.037935         4
        36        34         5        38     9        0.000000       -0.120241         1
        36        34         5        38     9      180.000000        0.046260         2
        36        34         5        38     9        0.000000        0.461859         3
        36        34         5        38     9      180.000000        0.037935         4
        37        34         5        38     9        0.000000       -0.120241         1
        37        34         5        38     9      180.000000        0.046260         2
        37        34         5        38     9        0.000000        0.461859         3
        37        34         5        38     9      180.000000        0.037935         4
        38        41        42        43     9        0.000000        0.891693         1
        38        41        42        43     9      180.000000        9.854304         2
        38        41        42        43     9        0.000000        1.001058         3
        38        41        42        43     9      180.000000       -0.339580         4
        38        41        45        44     9        0.000000        1.067967         1
        38        41        45        44     9      180.000000       17.163635         2
        38        41        45        44     9        0.000000        0.916669         3
        38        41        45        44     9      180.000000       -0.536881         4
        39        38        41        42     9        0.000000        0.204196         1
        39        38        41        42     9      180.000000        0.109656         2
        39        38        41        42     9        0.000000        0.284114         3
        39        38        41        42     9      180.000000        0.013921         4
        39        38        41        45     9        0.000000        0.183850         1
        39        38        41        45     9      180.000000        0.114149         2
        39        38        41        45     9        0.000000       -0.006667         3
        39        38        41        45     9      180.000000        0.034287         4
        40        38        41        42     9        0.000000        0.204196         1
        40        38        41        42     9      180.000000        0.109656         2
        40        38        41        42     9        0.000000        0.284114         3
        40        38        41        42     9      180.000000        0.013921         4
        40        38        41        45     9        0.000000        0.183850         1
        40        38        41        45     9      180.000000        0.114149         2
        40        38        41        45     9        0.000000       -0.006667         3
        40        38        41        45     9      180.000000        0.034287         4
        41        42        43        44     9        0.000000        0.123428         1
        41        42        43        44     9      180.000000       43.941229         2
        41        42        43        44     9        0.000000       -8.298993         3
        41        42        43        44     9      180.000000       -0.100567         4
        41        42        43        46     9        0.000000        1.032746         1
        41        42        43        46     9      180.000000       28.393712         2
        41        42        43        46     9        0.000000       -0.567085         3
        41        42        43        46     9      180.000000       -0.339816         4
        41        45        44        43     9        0.000000       -0.143028         1
        41        45        44        43     9      180.000000       42.247668         2
        41        45        44        43     9        0.000000       -5.077612         3
        41        45        44        43     9      180.000000        0.379738         4
        42        41        45        44     9        0.000000       -0.436333         1
        42        41        45        44     9      180.000000       40.236716         2
        42        41        45        44     9        0.000000       -7.387750         3
        42        41        45        44     9      180.000000       -0.317294         4
        42        43        44        45     9        0.000000       -0.151103         1
        42        43        44        45     9      180.000000       40.540935         2
        42        43        44        45     9        0.000000       -7.845728         3
        42        43        44        45     9      180.000000       -0.210146         4
        43        42        41        45     9        0.000000       -0.251856         1
        43        42        41        45     9      180.000000       30.293991         2
        43        42        41        45     9        0.000000       -6.269101         3
        43        42        41        45     9      180.000000       -0.049133         4
        45        44        43        46     9        0.000000        0.657178         1
        45        44        43        46     9      180.000000       25.209101         2
        45        44        43        46     9        0.000000       -0.460463         3
        45        44        43        46     9      180.000000       -0.138480         4

[ dihedrals ] ; impropers
;       ai        aj        ak        al funct           phase               k        pn
         2        13        20        21     4      180.000000       20.883038         2
         2        20        21        13     4      180.000000       20.883038         2
         2        21        13        20     4      180.000000       20.883038         2
         4        19        22        23     4      180.000000       27.893333         2
         4        22        23        19     4      180.000000       27.893333         2
         4        23        19        22     4      180.000000       27.893333         2
         7         6        13        27     4      180.000000        2.344823         2
         7        13        27         6     4      180.000000        2.344823         2
         7        27         6        13     4      180.000000        2.344823         2
         8         1         9        17     4      180.000000        0.457750         2
         8         9        17         1     4      180.000000        0.457750         2
         8        17         1         9     4      180.000000        0.457750         2
        10         9        14        25     4      180.000000        1.019581         2
        10        14        25         9     4      180.000000        1.019581         2
        10        25         9        14     4      180.000000        1.019581         2
        11         6        21        22     4      180.000000       14.485341         2
        11        21        22         6     4      180.000000       14.485341         2
        11        22         6        21     4      180.000000       14.485341         2
        12         6        19        28     4      180.000000       13.842947         2
        12        19        28         6     4      180.000000       13.842947         2
        12        28         6        19     4      180.000000       13.842947         2
        43        42        44        46     4      180.000000        1.600848         2
        43        44        46        42     4      180.000000        1.600848         2
        43        46        42        44     4      180.000000        1.600848         2

[ pairs ]
;       ai        aj funct
         1        10     1
         1        18     1
         1        24     1
         2         6     1
         2        14     1
         2        22     1
         2        27     1
         2        30     1
         2        31     1
         2        32     1
         3         9     1
         3        13     1
         3        17     1
         3        25     1
         4         6     1
         4        21     1
         4        28     1
         4        29     1
         4        34     1
         4        38     1
         5        19     1
         5        22     1
         5        42     1
         5        45     1
         6        15     1
         6        18     1
         7        14     1
         7        19     1
         7        20     1
         7        21     1
         7        22     1
         7        28     1
         8        14     1
         8        16     1
         8        25     1
         9        18     1
         9        26     1
        10        13     1
        10        16     1
        10        17     1
        11        13     1
        11        19     1
        11        20     1
        11        23     1
        11        27     1
        11        28     1
        11        30     1
        11        31     1
        11        32     1
        12        13     1
        12        21     1
        12        22     1
        12        23     1
        12        27     1
        13        15     1
        14        24     1
        14        26     1
        15        20     1
        15        22     1
        16        18     1
        16        26     1
        17        24     1
        17        26     1
        18        20     1
        18        21     1
        18        25     1
        18        27     1
        19        33     1
        22        33     1
        23        35     1
        23        36     1
        23        37     1
        23        39     1
        23        40     1
        23        41     1
        24        25     1
        29        33     1
        29        35     1
        29        36     1
        29        37     1
        29        39     1
        29        40     1
        29        41     1
        33        34     1
        33        38     1
        34        39     1
        34        40     1
        34        41     1
        35        38     1
        36        38     1
        37        38     1
        38        43     1
        38        44     1
        39        42     1
        39        45     1
        40        42     1
        40        45     1
        41        46     1
        45        46     1
