Generated by PDBParser (exclude clash < 1.000 A)
354
    1SOL     OW    1   1.609   1.193   2.789
    1SOL    HW1    2   1.617   1.261   2.863
    1SOL    HW2    3   1.568   1.236   2.709
    2SOL     OW    4   3.826  -1.254   1.589
    2SOL    HW1    5   3.741  -1.212   1.556
    2SOL    HW2    6   3.851  -1.214   1.677
    3SOL     OW    7   2.217  -1.327   1.097
    3SOL    HW1    8   2.313  -1.299   1.100
    3SOL    HW2    9   2.193  -1.374   1.183
    4SOL     OW   10   1.837   0.740   1.237
    4SOL    HW1   11   1.766   0.795   1.281
    4SOL    HW2   12   1.900   0.705   1.307
    5SOL     OW   13   1.130  -0.182  -0.420
    5SOL    HW1   14   1.162  -0.198  -0.326
    5SOL    HW2   15   1.135  -0.084  -0.441
    6SOL     OW   16  -0.042   0.741   0.110
    6SOL    HW1   17  -0.124   0.795   0.128
    6SOL    HW2   18  -0.042   0.711   0.014
    7SOL     OW   19   1.550  -1.580  -0.420
    7SOL    HW1   20   1.599  -1.498  -0.449
    7SOL    HW2   21   1.548  -1.646  -0.494
    8SOL     OW   22   0.665  -0.467   0.810
    8SOL    HW1   23   0.664  -0.387   0.871
    8SOL    HW2   24   0.574  -0.509   0.810
    9SOL     OW   25   2.997   0.168   2.203
    9SOL    HW1   26   3.038   0.081   2.174
    9SOL    HW2   27   3.040   0.200   2.287
   10SOL     OW   28   1.407   1.013   2.838
   10SOL    HW1   29   1.488   1.073   2.833
   10SOL    HW2   30   1.337   1.047   2.775
   11SOL     OW   31   1.417  -0.489   0.953
   11SOL    HW1   32   1.385  -0.396   0.968
   11SOL    HW2   33   1.502  -0.486   0.898
   12SOL     OW   34   1.409  -1.009   2.256
   12SOL    HW1   35   1.395  -0.977   2.162
   12SOL    HW2   36   1.440  -1.104   2.254
   13SOL     OW   37   1.728  -0.136  -1.193
   13SOL    HW1   38   1.784  -0.212  -1.229
   13SOL    HW2   39   1.754  -0.051  -1.238
   14SOL     OW   40   1.442   0.707   0.164
   14SOL    HW1   41   1.355   0.682   0.121
   14SOL    HW2   42   1.430   0.789   0.219
   15SOL     OW   43   0.960  -0.443   2.040
   15SOL    HW1   44   1.041  -0.502   2.032
   15SOL    HW2   45   0.987  -0.355   2.080
   16SOL     OW   46  -0.906  -0.288   1.654
   16SOL    HW1   47  -0.874  -0.368   1.602
   16SOL    HW2   48  -1.004  -0.277   1.639
   17SOL     OW   49   2.129  -0.437  -1.352
   17SOL    HW1   50   2.180  -0.430  -1.438
   17SOL    HW2   51   2.171  -0.507  -1.294
   18SOL     OW   52   4.091  -1.564  -0.530
   18SOL    HW1   53   4.007  -1.551  -0.583
   18SOL    HW2   54   4.166  -1.515  -0.575
   19SOL     OW   55   1.688  -0.549   2.718
   19SOL    HW1   56   1.710  -0.451   2.727
   19SOL    HW2   57   1.597  -0.566   2.757
   20SOL     OW   58   2.978  -0.775   2.083
   20SOL    HW1   59   2.943  -0.711   2.152
   20SOL    HW2   60   3.062  -0.816   2.115
   21SOL     OW   61   2.677  -1.099   2.002
   21SOL    HW1   62   2.644  -1.169   2.065
   21SOL    HW2   63   2.770  -1.072   2.028
   22SOL     OW   64   2.202   0.978   2.936
   22SOL    HW1   65   2.175   1.020   2.849
   22SOL    HW2   66   2.255   1.044   2.990
   23SOL     OW   67   3.327   1.002   0.786
   23SOL    HW1   68   3.383   0.942   0.844
   23SOL    HW2   69   3.265   1.055   0.844
   24SOL     OW   70   1.780  -1.043   0.195
   24SOL    HW1   71   1.716  -1.113   0.227
   24SOL    HW2   72   1.843  -1.083   0.129
   25SOL     OW   73  -0.353   0.253   2.116
   25SOL    HW1   74  -0.413   0.332   2.137
   25SOL    HW2   75  -0.354   0.189   2.192
   26SOL     OW   76   0.292  -0.193  -0.153
   26SOL    HW1   77   0.302  -0.291  -0.138
   26SOL    HW2   78   0.271  -0.176  -0.249
   27SOL     OW   79   0.153   1.280  -0.134
   27SOL    HW1   80   0.137   1.335  -0.217
   27SOL    HW2   81   0.065   1.249  -0.098
   28SOL     OW   82   2.104   0.669   2.769
   28SOL    HW1   83   2.130   0.740   2.834
   28SOL    HW2   84   2.176   0.600   2.764
   29SOL     OW   85   0.545  -1.113   1.336
   29SOL    HW1   86   0.475  -1.062   1.285
   29SOL    HW2   87   0.608  -1.049   1.380
   30SOL     OW   88   4.508  -0.858  -0.129
   30SOL    HW1   89   4.424  -0.836  -0.178
   30SOL    HW2   90   4.539  -0.777  -0.079
   31SOL     OW   91   4.209  -1.454   0.099
   31SOL    HW1   92   4.295  -1.435   0.051
   31SOL    HW2   93   4.223  -1.442   0.197
   32SOL     OW   94   1.669   1.107   2.365
   32SOL    HW1   95   1.666   1.023   2.420
   32SOL    HW2   96   1.759   1.149   2.374
   33SOL     OW   97   1.502   0.652  -1.168
   33SOL    HW1   98   1.457   0.570  -1.203
   33SOL    HW2   99   1.433   0.718  -1.138
   34SOL     OW  100  -0.185   0.237   3.011
   34SOL    HW1  101  -0.255   0.291   2.965
   34SOL    HW2  102  -0.159   0.281   3.096
   35SOL     OW  103   0.931  -1.144   0.417
   35SOL    HW1  104   0.987  -1.064   0.441
   35SOL    HW2  105   0.972  -1.227   0.457
   36SOL     OW  106   2.456  -0.863   0.372
   36SOL    HW1  107   2.389  -0.932   0.346
   36SOL    HW2  108   2.410  -0.789   0.422
   37SOL     OW  109   2.312   0.221   2.612
   37SOL    HW1  110   2.254   0.186   2.538
   37SOL    HW2  111   2.367   0.297   2.578
   38SOL     OW  112   1.890   0.383   0.343
   38SOL    HW1  113   1.798   0.371   0.383
   38SOL    HW2  114   1.947   0.304   0.367
   39SOL     OW  115   2.411  -1.782   0.803
   39SOL    HW1  116   2.336  -1.820   0.749
   39SOL    HW2  117   2.393  -1.798   0.900
   40SOL     OW  118   1.945  -1.854   1.077
   40SOL    HW1  119   1.935  -1.916   0.999
   40SOL    HW2  120   1.856  -1.844   1.122
   41SOL     OW  121   1.917   1.128   1.332
   41SOL    HW1  122   1.884   1.041   1.369
   41SOL    HW2  123   1.907   1.127   1.232
   42SOL     OW  124   2.652   0.138  -1.650
   42SOL    HW1  125   2.564   0.186  -1.655
   42SOL    HW2  126   2.721   0.199  -1.611
   43SOL     OW  127   0.760  -1.314   1.476
   43SOL    HW1  128   0.818  -1.232   1.471
   43SOL    HW2  129   0.668  -1.291   1.442
   44SOL     OW  130   0.643   1.576   2.499
   44SOL    HW1  131   0.711   1.518   2.546
   44SOL    HW2  132   0.691   1.643   2.443
   45SOL     OW  133   3.491   0.140  -0.880
   45SOL    HW1  134   3.430   0.169  -0.806
   45SOL    HW2  135   3.470   0.191  -0.964
   46SOL     OW  136  -0.416   0.424   2.852
   46SOL    HW1  137  -0.426   0.415   2.752
   46SOL    HW2  138  -0.447   0.515   2.880
   47SOL     OW  139   3.114  -0.066   2.120
   47SOL    HW1  140   3.108  -0.082   2.022
   47SOL    HW2  141   3.174  -0.135   2.161
   48SOL     OW  142   2.255  -1.624  -1.222
   48SOL    HW1  143   2.270  -1.558  -1.148
   48SOL    HW2  144   2.208  -1.579  -1.297
   49SOL     OW  145   1.865  -0.726   2.648
   49SOL    HW1  146   1.794  -0.660   2.673
   49SOL    HW2  147   1.865  -0.739   2.549
   50SOL     OW  148   1.385   0.303  -0.983
   50SOL    HW1  149   1.481   0.285  -1.006
   50SOL    HW2  150   1.352   0.234  -0.919
   51SOL     OW  151   1.159   1.314  -0.540
   51SOL    HW1  152   1.249   1.276  -0.524
   51SOL    HW2  153   1.160   1.371  -0.623
   52SOL     OW  154  -0.037  -0.559   0.713
   52SOL    HW1  155  -0.035  -0.559   0.814
   52SOL    HW2  156  -0.033  -0.653   0.680
   53SOL     OW  157  -0.232  -0.021   3.000
   53SOL    HW1  158  -0.212   0.077   3.006
   53SOL    HW2  159  -0.331  -0.035   3.003
   54SOL     OW  160   0.886  -0.961  -0.199
   54SOL    HW1  161   0.979  -0.941  -0.230
   54SOL    HW2  162   0.822  -0.898  -0.244
   55SOL     OW  163   3.134   0.676   0.360
   55SOL    HW1  164   3.183   0.753   0.319
   55SOL    HW2  165   3.049   0.710   0.402
   56SOL     OW  166   2.871   0.841   0.182
   56SOL    HW1  167   2.782   0.798   0.170
   56SOL    HW2  168   2.899   0.834   0.277
   57SOL     OW  169   1.464   1.035   0.309
   57SOL    HW1  170   1.445   1.081   0.396
   57SOL    HW2  171   1.563   1.021   0.301
   58SOL     OW  172   1.549   0.362   0.020
   58SOL    HW1  173   1.515   0.279   0.065
   58SOL    HW2  174   1.584   0.425   0.089
   59SOL     OW  175   1.336   0.394  -0.142
   59SOL    HW1  176   1.419   0.377  -0.088
   59SOL    HW2  177   1.352   0.470  -0.204
   60SOL     OW  178   1.057   0.338  -0.037
   60SOL    HW1  179   1.147   0.357  -0.075
   60SOL    HW2  180   1.022   0.253  -0.077
   61SOL     OW  181   0.822   0.410   0.083
   61SOL    HW1  182   0.909   0.381   0.042
   61SOL    HW2  183   0.780   0.481   0.027
   62SOL     OW  184   2.356  -1.122   1.627
   62SOL    HW1  185   2.265  -1.120   1.670
   62SOL    HW2  186   2.361  -1.200   1.565
   63SOL     OW  187   2.045  -0.984   1.763
   63SOL    HW1  188   2.009  -1.077   1.778
   63SOL    HW2  189   2.102  -0.959   1.842
   64SOL     OW  190   1.534  -1.306   2.042
   64SOL    HW1  191   1.515  -1.226   1.986
   64SOL    HW2  192   1.453  -1.365   2.045
   65SOL     OW  193   2.107  -1.087   2.547
   65SOL    HW1  194   2.190  -1.051   2.506
   65SOL    HW2  195   2.055  -1.013   2.588
   66SOL     OW  196   2.324  -0.904   0.950
   66SOL    HW1  197   2.236  -0.918   0.905
   66SOL    HW2  198   2.370  -0.993   0.962
   67SOL     OW  199   2.458  -0.782   0.736
   67SOL    HW1  200   2.406  -0.818   0.814
   67SOL    HW2  201   2.395  -0.750   0.665
   68SOL     OW  202   2.738  -1.032   0.265
   68SOL    HW1  203   2.788  -1.029   0.178
   68SOL    HW2  204   2.794  -1.078   0.334
   69SOL     OW  205   2.429  -1.149  -0.113
   69SOL    HW1  206   2.467  -1.070  -0.161
   69SOL    HW2  207   2.462  -1.149  -0.018
   70SOL     OW  208   2.329  -1.267   0.283
   70SOL    HW1  209   2.267  -1.202   0.327
   70SOL    HW2  210   2.330  -1.353   0.334
   71SOL     OW  211   3.294  -1.600   0.304
   71SOL    HW1  212   3.281  -1.532   0.376
   71SOL    HW2  213   3.204  -1.632   0.273
   72SOL     OW  214   2.790  -1.741  -0.968
   72SOL    HW1  215   2.777  -1.702  -1.059
   72SOL    HW2  216   2.888  -1.759  -0.953
   73SOL     OW  217   0.693  -0.483   0.522
   73SOL    HW1  218   0.688  -0.465   0.621
   73SOL    HW2  219   0.601  -0.487   0.484
   74SOL     OW  220  -0.440  -0.374   1.136
   74SOL    HW1  221  -0.357  -0.359   1.190
   74SOL    HW2  222  -0.505  -0.429   1.190
   75SOL     OW  223  -0.475  -0.370   0.864
   75SOL    HW1  224  -0.448  -0.382   0.960
   75SOL    HW2  225  -0.401  -0.401   0.804
   76SOL     OW  226   0.323  -0.884   1.548
   76SOL    HW1  227   0.270  -0.841   1.475
   76SOL    HW2  228   0.410  -0.835   1.558
   77SOL     OW  229   0.576  -0.713   1.531
   77SOL    HW1  230   0.628  -0.642   1.578
   77SOL    HW2  231   0.634  -0.794   1.518
   78SOL     OW  232   0.067   0.470   3.032
   78SOL    HW1  233   0.090   0.372   3.038
   78SOL    HW2  234   0.129   0.522   3.091
   79SOL     OW  235   1.278   0.055   2.742
   79SOL    HW1  236   1.287   0.008   2.653
   79SOL    HW2  237   1.369   0.086   2.770
   80SOL     OW  238   0.540  -0.685   3.020
   80SOL    HW1  239   0.580  -0.759   2.966
   80SOL    HW2  240   0.448  -0.666   2.987
   82SOL     OW  244   0.885  -0.125   0.175
   82SOL    HW1  245   0.962  -0.079   0.219
   82SOL    HW2  246   0.835  -0.179   0.243
   83SOL     OW  247   1.142   0.084  -0.462
   83SOL    HW1  248   1.107   0.119  -0.549
   83SOL    HW2  249   1.212   0.146  -0.427
   84SOL     OW  250   1.964  -0.687   0.012
   84SOL    HW1  251   1.914  -0.649   0.091
   84SOL    HW2  252   2.062  -0.676   0.028
   85SOL     OW  253   2.510  -1.092   0.158
   85SOL    HW1  254   2.458  -1.161   0.210
   85SOL    HW2  255   2.594  -1.069   0.208
   86SOL     OW  256   2.904  -1.218   0.411
   86SOL    HW1  257   2.815  -1.263   0.423
   86SOL    HW2  258   2.957  -1.229   0.495
   87SOL     OW  259   3.298  -0.922   1.815
   87SOL    HW1  260   3.273  -0.843   1.760
   87SOL    HW2  261   3.353  -0.985   1.759
   88SOL     OW  262   2.826  -0.476   2.229
   88SOL    HW1  263   2.731  -0.463   2.256
   88SOL    HW2  264   2.856  -0.398   2.175
   89SOL     OW  265   2.550  -0.432   2.313
   89SOL    HW1  266   2.469  -0.440   2.254
   89SOL    HW2  267   2.534  -0.483   2.397
   90SOL     OW  268   2.337  -0.062   2.317
   90SOL    HW1  269   2.306  -0.157   2.307
   90SOL    HW2  270   2.427  -0.060   2.361
   91SOL     OW  271   2.562  -0.085   2.429
   91SOL    HW1  272   2.632  -0.026   2.467
   91SOL    HW2  273   2.604  -0.171   2.399
   92SOL     OW  274   3.105   0.834   2.249
   92SOL    HW1  275   3.159   0.827   2.165
   92SOL    HW2  276   3.165   0.865   2.324
   93SOL     OW  277   3.666   0.593   1.453
   93SOL    HW1  278   3.688   0.500   1.482
   93SOL    HW2  279   3.749   0.638   1.418
   94SOL     OW  280   3.244   0.821   2.029
   94SOL    HW1  281   3.202   0.875   1.955
   94SOL    HW2  282   3.344   0.826   2.021
   95SOL     OW  283   2.477   1.149   2.459
   95SOL    HW1  284   2.537   1.179   2.384
   95SOL    HW2  285   2.384   1.135   2.423
   96SOL     OW  286   3.936   0.090   0.358
   96SOL    HW1  287   3.887   0.015   0.313
   96SOL    HW2  288   3.924   0.083   0.457
   97SOL     OW  289   3.834  -0.371  -0.092
   97SOL    HW1  290   3.900  -0.401  -0.162
   97SOL    HW2  291   3.778  -0.449  -0.064
   98SOL     OW  292   4.030  -0.427  -0.878
   98SOL    HW1  293   4.077  -0.506  -0.917
   98SOL    HW2  294   4.054  -0.417  -0.782
   99SOL     OW  295   4.312  -1.109  -1.086
   99SOL    HW1  296   4.212  -1.104  -1.096
   99SOL    HW2  297   4.356  -1.083  -1.172
  100SOL     OW  298   3.319   0.070  -1.355
  100SOL    HW1  299   3.356  -0.017  -1.324
  100SOL    HW2  300   3.377   0.107  -1.428
  101SOL     OW  301   2.183  -1.451   1.310
  101SOL    HW1  302   2.151  -1.477   1.402
  101SOL    HW2  303   2.270  -1.496   1.292
  102SOL     OW  304   2.125  -1.526   1.539
  102SOL    HW1  305   2.045  -1.481   1.581
  102SOL    HW2  306   2.138  -1.615   1.582
  103SOL     OW  307   1.528   0.128   2.788
  103SOL    HW1  308   1.580   0.044   2.807
  103SOL    HW2  309   1.568   0.205   2.838
  104SOL     OW  310   1.897  -0.026   2.987
  104SOL    HW1  311   1.819  -0.060   2.934
  104SOL    HW2  312   1.864   0.036   3.058
  105SOL     OW  313  -0.659   1.507   2.011
  105SOL    HW1  314  -0.566   1.512   2.046
  105SOL    HW2  315  -0.670   1.423   1.957
  106SOL     OW  316  -0.026   0.743   2.637
  106SOL    HW1  317  -0.097   0.784   2.580
  106SOL    HW2  318   0.064   0.777   2.606
  107SOL     OW  319   0.250   0.573   3.192
  107SOL    HW1  320   0.313   0.644   3.160
  107SOL    HW2  321   0.221   0.593   3.285
  108SOL     OW  322   0.274   2.398   1.734
  108SOL    HW1  323   0.355   2.441   1.774
  108SOL    HW2  324   0.228   2.464   1.674
  109SOL     OW  325   1.289   1.582   2.279
  109SOL    HW1  326   1.256   1.571   2.185
  109SOL    HW2  327   1.295   1.679   2.301
  110SOL     OW  328   1.280   1.381   2.429
  110SOL    HW1  329   1.287   1.462   2.369
  110SOL    HW2  330   1.239   1.407   2.516
  111SOL     OW  331   0.582   2.777   0.820
  111SOL    HW1  332   0.507   2.716   0.794
  111SOL    HW2  333   0.581   2.859   0.763
  112SOL     OW  334  -0.425   0.383   0.052
  112SOL    HW1  335  -0.455   0.302   0.103
  112SOL    HW2  336  -0.469   0.384  -0.037
  113SOL     OW  337  -0.209   0.037   2.555
  113SOL    HW1  338  -0.166  -0.010   2.478
  113SOL    HW2  339  -0.286  -0.019   2.588
  114SOL     OW  340   0.281  -0.572   2.973
  114SOL    HW1  341   0.273  -0.590   3.072
  114SOL    HW2  342   0.266  -0.475   2.956
  115SOL     OW  343   0.873  -0.609   2.855
  115SOL    HW1  344   0.878  -0.537   2.924
  115SOL    HW2  345   0.936  -0.588   2.780
  116SOL     OW  346  -0.312  -0.432   0.659
  116SOL    HW1  347  -0.358  -0.488   0.591
  116SOL    HW2  348  -0.217  -0.461   0.667
  117SOL     OW  349   0.003  -0.919   0.185
  117SOL    HW1  350   0.012  -0.897   0.283
  117SOL    HW2  351   0.011  -1.018   0.173
  118SOL     OW  352   0.963   2.352  -1.202
  118SOL    HW1  353   0.879   2.405  -1.213
  118SOL    HW2  354   0.985   2.306  -1.288
  119SOL     OW  355   3.003   0.856  -0.042
  119SOL    HW1  356   2.955   0.849   0.046
  119SOL    HW2  357   3.007   0.766  -0.085
     5.539     5.539     5.539
