Generated by PDBParser
810
    1SOL     OW    1  -1.792  -2.878  -0.649
    1SOL    HW1    2  -1.850  -2.861  -0.728
    1SOL    HW2    3  -1.696  -2.886  -0.678
    2SOL     OW    4  -1.506  -3.187  -0.411
    2SOL    HW1    5  -1.442  -3.244  -0.462
    2SOL    HW2    6  -1.543  -3.239  -0.334
    3SOL     OW    7  -1.685  -3.123  -0.554
    3SOL    HW1    8  -1.655  -3.178  -0.632
    3SOL    HW2    9  -1.755  -3.172  -0.503
    4SOL     OW   10  -1.577  -2.470  -0.089
    4SOL    HW1   11  -1.639  -2.509  -0.157
    4SOL    HW2   12  -1.627  -2.446  -0.006
    5SOL     OW   13  -1.848  -2.374  -0.072
    5SOL    HW1   14  -1.856  -2.335  -0.163
    5SOL    HW2   15  -1.868  -2.303  -0.004
    6SOL     OW   16  -2.908  -2.235  -0.567
    6SOL    HW1   17  -2.821  -2.232  -0.517
    6SOL    HW2   18  -2.968  -2.163  -0.535
    7SOL     OW   19  -3.009  -2.057  -0.262
    7SOL    HW1   20  -3.073  -2.003  -0.206
    7SOL    HW2   21  -2.940  -2.098  -0.202
    8SOL     OW   22  -2.906  -1.491  -0.136
    8SOL    HW1   23  -2.938  -1.546  -0.213
    8SOL    HW2   24  -2.810  -1.514  -0.117
    9SOL     OW   25  -3.172  -1.734  -0.175
    9SOL    HW1   26  -3.106  -1.702  -0.243
    9SOL    HW2   27  -3.125  -1.789  -0.106
   10SOL     OW   28  -3.203  -2.300  -0.721
   10SOL    HW1   29  -3.151  -2.218  -0.697
   10SOL    HW2   30  -3.191  -2.369  -0.650
   11SOL     OW   31  -3.390  -1.757  -0.769
   11SOL    HW1   32  -3.342  -1.837  -0.731
   11SOL    HW2   33  -3.439  -1.785  -0.851
   12SOL     OW   34  -3.444  -1.978  -0.451
   12SOL    HW1   35  -3.427  -1.889  -0.407
   12SOL    HW2   36  -3.381  -1.990  -0.528
   13SOL     OW   37  -3.220  -1.567  -0.875
   13SOL    HW1   38  -3.214  -1.515  -0.789
   13SOL    HW2   39  -3.302  -1.540  -0.924
   14SOL     OW   40  -3.464  -1.590  -0.560
   14SOL    HW1   41  -3.437  -1.650  -0.636
   14SOL    HW2   42  -3.444  -1.635  -0.473
   15SOL     OW   43  -3.055  -1.253  -0.214
   15SOL    HW1   44  -3.004  -1.335  -0.187
   15SOL    HW2   45  -2.993  -1.175  -0.216
   16SOL     OW   46  -3.510  -0.735  -0.986
   16SOL    HW1   47  -3.439  -0.714  -1.054
   16SOL    HW2   48  -3.467  -0.753  -0.897
   17SOL     OW   49  -3.316  -0.345  -0.306
   17SOL    HW1   50  -3.240  -0.382  -0.360
   17SOL    HW2   51  -3.325  -0.398  -0.221
   18SOL     OW   52  -3.554  -0.365  -0.452
   18SOL    HW1   53  -3.506  -0.407  -0.529
   18SOL    HW2   54  -3.488  -0.345  -0.379
   19SOL     OW   55  -3.033  -0.550  -0.112
   19SOL    HW1   56  -2.968  -0.501  -0.053
   19SOL    HW2   57  -3.106  -0.589  -0.056
   20SOL     OW   58  -2.710  -0.742  -0.096
   20SOL    HW1   59  -2.773  -0.766  -0.170
   20SOL    HW2   60  -2.760  -0.692  -0.025
   21SOL     OW   61  -2.642  -1.083  -0.164
   21SOL    HW1   62  -2.567  -1.049  -0.221
   21SOL    HW2   63  -2.729  -1.050  -0.199
   22SOL     OW   64  -2.832  -0.252  -0.734
   22SOL    HW1   65  -2.815  -0.348  -0.714
   22SOL    HW2   66  -2.835  -0.239  -0.834
   23SOL     OW   67  -2.272  -0.458   0.073
   23SOL    HW1   68  -2.265  -0.550   0.033
   23SOL    HW2   69  -2.283  -0.466   0.172
   24SOL     OW   70  -2.421  -0.718  -0.173
   24SOL    HW1   71  -2.430  -0.806  -0.219
   24SOL    HW2   72  -2.509  -0.693  -0.133
   25SOL     OW   73  -2.847  -0.182  -1.005
   25SOL    HW1   74  -2.878  -0.263  -1.054
   25SOL    HW2   75  -2.915  -0.109  -1.013
   26SOL     OW   76  -3.161  -0.447  -1.255
   26SOL    HW1   77  -3.069  -0.466  -1.220
   26SOL    HW2   78  -3.197  -0.364  -1.212
   27SOL     OW   79  -2.479  -0.253  -1.281
   27SOL    HW1   80  -2.394  -0.239  -1.231
   27SOL    HW2   81  -2.511  -0.348  -1.269
   28SOL     OW   82  -3.301  -0.674  -1.184
   28SOL    HW1   83  -3.313  -0.740  -1.259
   28SOL    HW2   84  -3.249  -0.595  -1.218
   29SOL     OW   85  -3.549  -0.990  -1.339
   29SOL    HW1   86  -3.481  -0.980  -1.412
   29SOL    HW2   87  -3.523  -0.932  -1.261
   30SOL     OW   88  -3.399  -0.518  -1.677
   30SOL    HW1   89  -3.322  -0.479  -1.628
   30SOL    HW2   90  -3.401  -0.617  -1.663
   31SOL     OW   91  -3.544  -1.014  -1.697
   31SOL    HW1   92  -3.480  -0.945  -1.664
   31SOL    HW2   93  -3.638  -0.982  -1.682
   32SOL     OW   94  -3.181  -0.409  -1.539
   32SOL    HW1   95  -3.124  -0.331  -1.563
   32SOL    HW2   96  -3.176  -0.425  -1.440
   33SOL     OW   97  -2.438  -0.210  -1.533
   33SOL    HW1   98  -2.454  -0.227  -1.436
   33SOL    HW2   99  -2.354  -0.257  -1.561
   34SOL     OW  100  -2.304  -0.100  -1.856
   34SOL    HW1  101  -2.308  -0.094  -1.756
   34SOL    HW2  102  -2.366  -0.172  -1.887
   35SOL     OW  103  -2.084  -0.121  -1.511
   35SOL    HW1  104  -2.136  -0.191  -1.559
   35SOL    HW2  105  -2.110  -0.031  -1.546
   36SOL     OW  106  -1.915  -0.482  -1.935
   36SOL    HW1  107  -1.943  -0.538  -2.014
   36SOL    HW2  108  -1.990  -0.476  -1.870
   37SOL     OW  109  -1.979  -0.176  -1.956
   37SOL    HW1  110  -2.054  -0.139  -2.011
   37SOL    HW2  111  -2.014  -0.247  -1.895
   38SOL     OW  112  -1.849  -0.497  -1.550
   38SOL    HW1  113  -1.921  -0.471  -1.614
   38SOL    HW2  114  -1.798  -0.575  -1.588
   39SOL     OW  115  -3.103  -0.490  -2.325
   39SOL    HW1  116  -3.014  -0.485  -2.280
   39SOL    HW2  117  -3.092  -0.528  -2.417
   40SOL     OW  118  -3.598  -0.761  -2.046
   40SOL    HW1  119  -3.545  -0.846  -2.047
   40SOL    HW2  120  -3.539  -0.684  -2.023
   41SOL     OW  121  -2.794  -0.240  -2.477
   41SOL    HW1  122  -2.725  -0.228  -2.406
   41SOL    HW2  123  -2.756  -0.295  -2.552
   42SOL     OW  124  -2.712   0.012  -2.335
   42SOL    HW1  125  -2.657  -0.063  -2.300
   42SOL    HW2  126  -2.765   0.053  -2.261
   43SOL     OW  127  -2.784  -0.897  -3.025
   43SOL    HW1  128  -2.717  -0.824  -3.011
   43SOL    HW2  129  -2.827  -0.919  -2.937
   44SOL     OW  130  -1.818  -0.549  -3.415
   44SOL    HW1  131  -1.845  -0.623  -3.353
   44SOL    HW2  132  -1.728  -0.514  -3.388
   45SOL     OW  133  -1.709  -0.700  -2.846
   45SOL    HW1  134  -1.655  -0.626  -2.805
   45SOL    HW2  135  -1.649  -0.775  -2.873
   46SOL     OW  136  -2.532  -0.218  -3.143
   46SOL    HW1  137  -2.572  -0.175  -3.225
   46SOL    HW2  138  -2.571  -0.174  -3.062
   47SOL     OW  139  -2.865  -0.391  -2.918
   47SOL    HW1  140  -2.922  -0.383  -2.836
   47SOL    HW2  141  -2.896  -0.469  -2.973
   48SOL     OW  142  -2.285  -0.313  -3.265
   48SOL    HW1  143  -2.312  -0.409  -3.261
   48SOL    HW2  144  -2.358  -0.256  -3.227
   49SOL     OW  145  -2.635  -0.106  -3.357
   49SOL    HW1  146  -2.701  -0.166  -3.403
   49SOL    HW2  147  -2.560  -0.084  -3.420
   50SOL     OW  148  -2.626  -0.628  -3.735
   50SOL    HW1  149  -2.566  -0.698  -3.694
   50SOL    HW2  150  -2.686  -0.591  -3.664
   51SOL     OW  151  -2.228  -0.692  -4.072
   51SOL    HW1  152  -2.240  -0.780  -4.027
   51SOL    HW2  153  -2.156  -0.640  -4.027
   52SOL     OW  154  -1.661  -0.932  -3.708
   52SOL    HW1  155  -1.678  -1.002  -3.778
   52SOL    HW2  156  -1.709  -0.957  -3.624
   53SOL     OW  157  -1.412  -0.864  -3.931
   53SOL    HW1  158  -1.398  -0.943  -3.990
   53SOL    HW2  159  -1.328  -0.844  -3.881
   54SOL     OW  160  -1.417  -0.476  -4.164
   54SOL    HW1  161  -1.418  -0.508  -4.258
   54SOL    HW2  162  -1.323  -0.476  -4.129
   55SOL     OW  163  -2.081  -1.164  -3.526
   55SOL    HW1  164  -2.034  -1.087  -3.483
   55SOL    HW2  165  -2.018  -1.214  -3.585
   56SOL     OW  166  -2.766  -1.387  -3.988
   56SOL    HW1  167  -2.687  -1.344  -3.944
   56SOL    HW2  168  -2.841  -1.396  -3.922
   57SOL     OW  169  -2.478  -1.333  -3.303
   57SOL    HW1  170  -2.457  -1.296  -3.393
   57SOL    HW2  171  -2.544  -1.273  -3.257
   58SOL     OW  172  -2.042  -1.466  -3.533
   58SOL    HW1  173  -2.140  -1.448  -3.537
   58SOL    HW2  174  -1.997  -1.422  -3.611
   59SOL     OW  175  -2.967  -1.408  -3.799
   59SOL    HW1  176  -3.011  -1.468  -3.733
   59SOL    HW2  177  -2.945  -1.321  -3.756
   60SOL     OW  178  -3.035  -1.022  -3.896
   60SOL    HW1  179  -2.978  -1.071  -3.830
   60SOL    HW2  180  -3.006  -0.926  -3.900
   61SOL     OW  181  -2.938  -1.770  -3.527
   61SOL    HW1  182  -2.852  -1.732  -3.494
   61SOL    HW2  183  -2.985  -1.817  -3.452
   62SOL     OW  184  -3.090  -1.576  -3.612
   62SOL    HW1  185  -3.032  -1.651  -3.579
   62SOL    HW2  186  -3.184  -1.609  -3.620
   63SOL     OW  187  -2.886  -1.948  -3.728
   63SOL    HW1  188  -2.905  -1.883  -3.655
   63SOL    HW2  189  -2.870  -1.898  -3.813
   64SOL     OW  190  -2.756  -1.644  -4.081
   64SOL    HW1  191  -2.759  -1.550  -4.047
   64SOL    HW2  192  -2.845  -1.688  -4.068
   65SOL     OW  193  -2.210  -2.139  -3.905
   65SOL    HW1  194  -2.208  -2.173  -3.811
   65SOL    HW2  195  -2.281  -2.069  -3.913
   66SOL     OW  196  -2.663  -1.951  -3.005
   66SOL    HW1  197  -2.610  -1.906  -3.077
   66SOL    HW2  198  -2.760  -1.940  -3.023
   67SOL     OW  199  -2.671  -1.178  -3.147
   67SOL    HW1  200  -2.706  -1.092  -3.109
   67SOL    HW2  201  -2.748  -1.235  -3.176
   68SOL     OW  202  -2.948  -0.602  -3.067
   68SOL    HW1  203  -3.046  -0.583  -3.061
   68SOL    HW2  204  -2.932  -0.699  -3.049
   69SOL     OW  205  -3.236  -0.742  -3.256
   69SOL    HW1  206  -3.302  -0.719  -3.329
   69SOL    HW2  207  -3.238  -0.670  -3.186
   70SOL     OW  208  -3.526  -0.852  -2.766
   70SOL    HW1  209  -3.536  -0.950  -2.780
   70SOL    HW2  210  -3.616  -0.812  -2.747
   71SOL     OW  211  -3.021  -0.369  -2.692
   71SOL    HW1  212  -2.954  -0.331  -2.628
   71SOL    HW2  213  -3.067  -0.447  -2.649
   72SOL     OW  214  -3.671  -0.869  -1.942
   72SOL    HW1  215  -3.714  -0.942  -1.994
   72SOL    HW2  216  -3.741  -0.821  -1.888
   73SOL     OW  217  -3.912  -0.894  -2.663
   73SOL    HW1  218  -3.853  -0.815  -2.679
   73SOL    HW2  219  -3.916  -0.950  -2.746
   74SOL     OW  220  -3.715  -1.139  -1.517
   74SOL    HW1  221  -3.650  -1.215  -1.517
   74SOL    HW2  222  -3.680  -1.066  -1.458
   75SOL     OW  223  -3.881  -1.520  -2.239
   75SOL    HW1  224  -3.844  -1.540  -2.330
   75SOL    HW2  225  -3.845  -1.586  -2.173
   76SOL     OW  226  -3.997  -1.808  -1.923
   76SOL    HW1  227  -3.916  -1.785  -1.978
   76SOL    HW2  228  -4.001  -1.748  -1.844
   77SOL     OW  229  -3.998  -1.619  -1.686
   77SOL    HW1  230  -3.944  -1.570  -1.618
   77SOL    HW2  231  -4.062  -1.680  -1.641
   78SOL     OW  232  -3.557  -1.304  -1.242
   78SOL    HW1  233  -3.555  -1.208  -1.272
   78SOL    HW2  234  -3.547  -1.363  -1.322
   79SOL     OW  235  -3.844  -1.480  -1.492
   79SOL    HW1  236  -3.809  -1.537  -1.418
   79SOL    HW2  237  -3.808  -1.388  -1.483
   80SOL     OW  238  -3.747  -1.636  -1.289
   80SOL    HW1  239  -3.649  -1.653  -1.276
   80SOL    HW2  240  -3.798  -1.682  -1.216
   81SOL     OW  241  -3.537  -1.809  -1.001
   81SOL    HW1  242  -3.517  -1.765  -1.089
   81SOL    HW2  243  -3.528  -1.908  -1.011
   82SOL     OW  244  -3.460  -1.486  -1.016
   82SOL    HW1  245  -3.483  -1.583  -1.011
   82SOL    HW2  246  -3.502  -1.445  -1.097
   83SOL     OW  247  -2.848  -1.911  -1.242
   83SOL    HW1  248  -2.825  -1.982  -1.175
   83SOL    HW2  249  -2.777  -1.841  -1.243
   84SOL     OW  250  -3.592  -2.213  -0.887
   84SOL    HW1  251  -3.641  -2.278  -0.945
   84SOL    HW2  252  -3.630  -2.121  -0.900
   85SOL     OW  253  -2.833  -2.324  -1.220
   85SOL    HW1  254  -2.815  -2.246  -1.160
   85SOL    HW2  255  -2.807  -2.301  -1.314
   86SOL     OW  256  -1.701  -1.430  -0.406
   86SOL    HW1  257  -1.656  -1.341  -0.405
   86SOL    HW2  258  -1.710  -1.462  -0.500
   87SOL     OW  259  -1.607  -1.863  -0.217
   87SOL    HW1  260  -1.612  -1.768  -0.250
   87SOL    HW2  261  -1.512  -1.885  -0.195
   88SOL     OW  262  -1.331  -2.555  -0.137
   88SOL    HW1  263  -1.423  -2.522  -0.119
   88SOL    HW2  264  -1.328  -2.655  -0.128
   89SOL     OW  265  -1.319  -2.766  -0.542
   89SOL    HW1  266  -1.239  -2.749  -0.485
   89SOL    HW2  267  -1.360  -2.854  -0.517
   90SOL     OW  268  -0.667  -2.293  -0.324
   90SOL    HW1  269  -0.755  -2.267  -0.363
   90SOL    HW2  270  -0.634  -2.376  -0.369
   91SOL     OW  271  -1.002  -2.779  -0.937
   91SOL    HW1  272  -1.047  -2.719  -1.003
   91SOL    HW2  273  -1.046  -2.869  -0.937
   92SOL     OW  274  -1.273  -2.769  -0.704
   92SOL    HW1  275  -1.351  -2.761  -0.766
   92SOL    HW2  276  -1.226  -2.856  -0.721
   93SOL     OW  277  -0.961  -2.057  -0.932
   93SOL    HW1  278  -0.979  -2.026  -0.839
   93SOL    HW2  279  -1.039  -2.037  -0.991
   94SOL     OW  280  -1.065  -1.244   0.006
   94SOL    HW1  281  -1.073  -1.160  -0.048
   94SOL    HW2  282  -0.970  -1.257   0.032
   95SOL     OW  283  -0.430  -2.140  -0.327
   95SOL    HW1  284  -0.514  -2.194  -0.326
   95SOL    HW2  285  -0.452  -2.044  -0.312
   96SOL     OW  286  -0.485  -1.714  -0.146
   96SOL    HW1  287  -0.525  -1.753  -0.229
   96SOL    HW2  288  -0.498  -1.777  -0.070
   97SOL     OW  289  -0.729  -2.315  -0.048
   97SOL    HW1  290  -0.753  -2.235   0.006
   97SOL    HW2  291  -0.711  -2.288  -0.142
   98SOL     OW  292  -0.301  -1.954  -0.766
   98SOL    HW1  293  -0.386  -1.904  -0.750
   98SOL    HW2  294  -0.231  -1.891  -0.798
   99SOL     OW  295  -0.935  -2.630  -1.307
   99SOL    HW1  296  -0.928  -2.669  -1.400
   99SOL    HW2  297  -1.026  -2.646  -1.271
  100SOL     OW  298  -0.846  -2.223  -1.155
  100SOL    HW1  299  -0.884  -2.168  -1.081
  100SOL    HW2  300  -0.879  -2.188  -1.243
  101SOL     OW  301  -0.575  -1.359  -1.044
  101SOL    HW1  302  -0.589  -1.400  -0.953
  101SOL    HW2  303  -0.617  -1.268  -1.046
  102SOL     OW  304  -0.529  -1.095  -0.391
  102SOL    HW1  305  -0.496  -1.131  -0.304
  102SOL    HW2  306  -0.479  -1.011  -0.413
  103SOL     OW  307  -0.352  -1.427  -0.114
  103SOL    HW1  308  -0.417  -1.502  -0.123
  103SOL    HW2  309  -0.366  -1.362  -0.190
  104SOL     OW  310  -0.805  -1.520  -0.016
  104SOL    HW1  311  -0.767  -1.529  -0.109
  104SOL    HW2  312  -0.786  -1.604   0.035
  105SOL     OW  313   0.050  -1.482  -0.377
  105SOL    HW1  314   0.012  -1.502  -0.287
  105SOL    HW2  315  -0.024  -1.482  -0.445
  106SOL     OW  316  -0.070  -1.845  -0.852
  106SOL    HW1  317  -0.001  -1.775  -0.872
  106SOL    HW2  318  -0.042  -1.932  -0.892
  107SOL     OW  319   0.427  -1.458  -1.143
  107SOL    HW1  320   0.469  -1.368  -1.147
  107SOL    HW2  321   0.442  -1.498  -1.052
  108SOL     OW  322   0.340  -1.329  -1.429
  108SOL    HW1  323   0.366  -1.369  -1.341
  108SOL    HW2  324   0.420  -1.287  -1.473
  109SOL     OW  325   0.218  -1.694  -1.568
  109SOL    HW1  326   0.167  -1.648  -1.640
  109SOL    HW2  327   0.316  -1.691  -1.589
  110SOL     OW  328  -1.036  -0.625  -0.586
  110SOL    HW1  329  -1.078  -0.673  -0.663
  110SOL    HW2  330  -1.061  -0.672  -0.500
  111SOL     OW  331  -1.225  -0.918  -0.406
  111SOL    HW1  332  -1.262  -0.825  -0.401
  111SOL    HW2  333  -1.300  -0.983  -0.420
  112SOL     OW  334  -0.648  -1.083  -0.130
  112SOL    HW1  335  -0.603  -1.012  -0.076
  112SOL    HW2  336  -0.637  -1.171  -0.084
  113SOL     OW  337  -1.090  -0.979  -0.163
  113SOL    HW1  338  -1.137  -0.958  -0.248
  113SOL    HW2  339  -1.095  -0.901  -0.101
  114SOL     OW  340   0.471  -1.155  -0.795
  114SOL    HW1  341   0.386  -1.119  -0.833
  114SOL    HW2  342   0.459  -1.174  -0.697
  115SOL     OW  343   0.221  -1.861  -1.066
  115SOL    HW1  344   0.193  -1.781  -1.012
  115SOL    HW2  345   0.320  -1.871  -1.062
  116SOL     OW  346   0.370  -1.640  -0.514
  116SOL    HW1  347   0.323  -1.664  -0.599
  116SOL    HW2  348   0.338  -1.551  -0.482
  117SOL     OW  349   0.043  -0.598  -0.427
  117SOL    HW1  350  -0.011  -0.653  -0.490
  117SOL    HW2  351   0.053  -0.646  -0.340
  118SOL     OW  352  -0.391  -0.851  -0.455
  118SOL    HW1  353  -0.307  -0.822  -0.502
  118SOL    HW2  354  -0.431  -0.772  -0.408
  119SOL     OW  355   0.689  -0.930  -0.766
  119SOL    HW1  356   0.691  -0.932  -0.666
  119SOL    HW2  357   0.638  -0.850  -0.796
  120SOL     OW  358   0.479  -0.362  -0.707
  120SOL    HW1  359   0.488  -0.458  -0.737
  120SOL    HW2  360   0.432  -0.359  -0.619
  121SOL     OW  361   0.695  -0.936  -0.431
  121SOL    HW1  362   0.599  -0.960  -0.412
  121SOL    HW2  363   0.747  -0.934  -0.346
  122SOL     OW  364   0.436  -1.209  -0.519
  122SOL    HW1  365   0.428  -1.128  -0.461
  122SOL    HW2  366   0.377  -1.281  -0.484
  123SOL     OW  367   0.275  -1.341  -0.385
  123SOL    HW1  368   0.190  -1.394  -0.382
  123SOL    HW2  369   0.299  -1.313  -0.292
  124SOL     OW  370   0.062  -0.735  -0.199
  124SOL    HW1  371   0.076  -0.671  -0.123
  124SOL    HW2  372   0.139  -0.799  -0.204
  125SOL     OW  373   0.394  -0.465  -1.470
  125SOL    HW1  374   0.417  -0.509  -1.383
  125SOL    HW2  375   0.479  -0.451  -1.522
  126SOL     OW  376   0.724  -0.548  -1.183
  126SOL    HW1  377   0.681  -0.475  -1.130
  126SOL    HW2  378   0.657  -0.584  -1.249
  127SOL     OW  379   0.106  -0.143  -1.595
  127SOL    HW1  380   0.041  -0.084  -1.547
  127SOL    HW2  381   0.141  -0.096  -1.676
  128SOL     OW  382  -0.220  -0.253  -1.556
  128SOL    HW1  383  -0.248  -0.346  -1.579
  128SOL    HW2  384  -0.160  -0.256  -1.475
  129SOL     OW  385   0.590  -0.317  -1.016
  129SOL    HW1  386   0.617  -0.229  -1.053
  129SOL    HW2  387   0.619  -0.324  -0.920
  130SOL     OW  388   0.171   0.120  -0.536
  130SOL    HW1  389   0.196   0.030  -0.498
  130SOL    HW2  390   0.133   0.108  -0.628
  131SOL     OW  391  -0.091   0.036  -1.453
  131SOL    HW1  392  -0.057   0.056  -1.361
  131SOL    HW2  393  -0.179  -0.011  -1.446
  132SOL     OW  394  -0.501  -0.435  -0.693
  132SOL    HW1  395  -0.471  -0.393  -0.608
  132SOL    HW2  396  -0.531  -0.528  -0.676
  133SOL     OW  397  -0.415  -0.314  -0.445
  133SOL    HW1  398  -0.470  -0.233  -0.426
  133SOL    HW2  399  -0.319  -0.287  -0.452
  134SOL     OW  400   0.516  -0.150  -0.320
  134SOL    HW1  401   0.423  -0.148  -0.356
  134SOL    HW2  402   0.578  -0.103  -0.384
  135SOL     OW  403  -0.816  -0.347  -0.994
  135SOL    HW1  404  -0.823  -0.248  -1.009
  135SOL    HW2  405  -0.803  -0.364  -0.896
  136SOL     OW  406  -0.552  -0.221  -1.897
  136SOL    HW1  407  -0.571  -0.127  -1.868
  136SOL    HW2  408  -0.593  -0.237  -1.987
  137SOL     OW  409  -1.012  -0.230  -1.304
  137SOL    HW1  410  -0.919  -0.206  -1.279
  137SOL    HW2  411  -1.045  -0.305  -1.247
  138SOL     OW  412  -1.268  -0.515  -0.835
  138SOL    HW1  413  -1.226  -0.604  -0.822
  138SOL    HW2  414  -1.261  -0.487  -0.931
  139SOL     OW  415  -0.878  -0.180  -2.033
  139SOL    HW1  416  -0.795  -0.219  -2.073
  139SOL    HW2  417  -0.946  -0.165  -2.105
  140SOL     OW  418  -1.337  -0.391  -1.839
  140SOL    HW1  419  -1.359  -0.368  -1.934
  140SOL    HW2  420  -1.393  -0.470  -1.810
  141SOL     OW  421  -0.599   0.014  -1.825
  141SOL    HW1  422  -0.683   0.046  -1.869
  141SOL    HW2  423  -0.522   0.073  -1.853
  142SOL     OW  424  -1.484  -0.399  -1.491
  142SOL    HW1  425  -1.578  -0.364  -1.491
  142SOL    HW2  426  -1.446  -0.392  -1.583
  143SOL     OW  427  -1.552  -0.465  -1.702
  143SOL    HW1  428  -1.594  -0.551  -1.672
  143SOL    HW2  429  -1.616  -0.415  -1.760
  144SOL     OW  430  -1.466  -2.201  -2.159
  144SOL    HW1  431  -1.372  -2.199  -2.194
  144SOL    HW2  432  -1.493  -2.108  -2.132
  145SOL     OW  433  -2.220  -2.055  -2.114
  145SOL    HW1  434  -2.304  -2.013  -2.079
  145SOL    HW2  435  -2.242  -2.145  -2.152
  146SOL     OW  436  -2.356  -2.325  -2.216
  146SOL    HW1  437  -2.338  -2.317  -2.314
  146SOL    HW2  438  -2.295  -2.393  -2.176
  147SOL     OW  439  -2.146  -2.920  -2.374
  147SOL    HW1  440  -2.117  -2.845  -2.314
  147SOL    HW2  441  -2.066  -2.958  -2.421
  148SOL     OW  442  -2.160  -2.725  -1.924
  148SOL    HW1  443  -2.231  -2.753  -1.859
  148SOL    HW2  444  -2.202  -2.709  -2.014
  149SOL     OW  445  -1.901  -2.911  -1.883
  149SOL    HW1  446  -1.981  -2.853  -1.895
  149SOL    HW2  447  -1.837  -2.896  -1.958
  150SOL     OW  448  -1.146  -2.029  -1.151
  150SOL    HW1  449  -1.121  -1.934  -1.169
  150SOL    HW2  450  -1.239  -2.034  -1.114
  151SOL     OW  451  -0.629  -2.345  -1.322
  151SOL    HW1  452  -0.702  -2.304  -1.267
  151SOL    HW2  453  -0.612  -2.287  -1.402
  152SOL     OW  454  -1.100  -2.576  -2.519
  152SOL    HW1  455  -1.114  -2.602  -2.423
  152SOL    HW2  456  -1.080  -2.479  -2.525
  153SOL     OW  457  -1.197  -2.917  -2.335
  153SOL    HW1  458  -1.177  -2.823  -2.307
  153SOL    HW2  459  -1.131  -2.979  -2.292
  154SOL     OW  460  -1.416  -2.908  -1.881
  154SOL    HW1  461  -1.447  -2.911  -1.976
  154SOL    HW2  462  -1.491  -2.934  -1.821
  155SOL     OW  463  -1.226  -1.930  -2.382
  155SOL    HW1  464  -1.215  -2.020  -2.340
  155SOL    HW2  465  -1.322  -1.916  -2.406
  156SOL     OW  466  -1.116  -2.425  -2.872
  156SOL    HW1  467  -1.199  -2.373  -2.892
  156SOL    HW2  468  -1.127  -2.475  -2.786
  157SOL     OW  469  -1.270  -2.074  -3.479
  157SOL    HW1  470  -1.353  -2.084  -3.533
  157SOL    HW2  471  -1.248  -2.160  -3.434
  158SOL     OW  472  -1.523  -1.708  -3.285
  158SOL    HW1  473  -1.556  -1.659  -3.205
  158SOL    HW2  474  -1.444  -1.764  -3.260
  159SOL     OW  475  -0.524  -1.930  -3.194
  159SOL    HW1  476  -0.562  -2.008  -3.144
  159SOL    HW2  477  -0.585  -1.851  -3.182
  160SOL     OW  478  -0.364  -2.235  -3.102
  160SOL    HW1  479  -0.461  -2.210  -3.094
  160SOL    HW2  480  -0.350  -2.326  -3.062
  161SOL     OW  481  -1.067  -2.364  -3.160
  161SOL    HW1  482  -1.083  -2.384  -3.064
  161SOL    HW2  483  -1.046  -2.449  -3.209
  162SOL     OW  484  -0.745  -1.709  -3.512
  162SOL    HW1  485  -0.793  -1.772  -3.450
  162SOL    HW2  486  -0.686  -1.649  -3.458
  163SOL     OW  487  -1.034  -1.973  -3.549
  163SOL    HW1  488  -1.123  -2.011  -3.523
  163SOL    HW2  489  -0.985  -1.944  -3.467
  164SOL     OW  490  -1.119  -1.485  -3.216
  164SOL    HW1  491  -1.200  -1.435  -3.247
  164SOL    HW2  492  -1.141  -1.538  -3.135
  165SOL     OW  493  -0.332  -1.176  -3.264
  165SOL    HW1  494  -0.410  -1.239  -3.263
  165SOL    HW2  495  -0.249  -1.225  -3.292
  166SOL     OW  496  -1.341  -1.351  -3.299
  166SOL    HW1  497  -1.334  -1.332  -3.397
  166SOL    HW2  498  -1.348  -1.264  -3.249
  167SOL     OW  499  -2.652  -1.357  -0.083
  167SOL    HW1  500  -2.648  -1.261  -0.112
  167SOL    HW2  501  -2.635  -1.364   0.015
  168SOL     OW  502  -3.398  -1.736  -0.332
  168SOL    HW1  503  -3.316  -1.736  -0.275
  168SOL    HW2  504  -3.478  -1.714  -0.275
  169SOL     OW  505  -3.247  -1.237  -0.012
  169SOL    HW1  506  -3.178  -1.243  -0.084
  169SOL    HW2  507  -3.246  -1.145   0.027
  170SOL     OW  508  -0.193  -2.027  -2.948
  170SOL    HW1  509  -0.248  -2.094  -2.998
  170SOL    HW2  510  -0.146  -1.968  -3.014
  171SOL     OW  511  -2.617  -0.098  -1.110
  171SOL    HW1  512  -2.704  -0.130  -1.071
  171SOL    HW2  513  -2.581  -0.169  -1.171
  172SOL     OW  514  -3.461  -0.515  -1.984
  172SOL    HW1  515  -3.442  -0.516  -1.886
  172SOL    HW2  516  -3.388  -0.467  -2.033
  173SOL     OW  517  -2.233  -0.051  -2.141
  173SOL    HW1  518  -2.257  -0.068  -2.045
  173SOL    HW2  519  -2.292  -0.106  -2.200
  174SOL     OW  520  -1.726  -0.731  -2.568
  174SOL    HW1  521  -1.773  -0.812  -2.603
  174SOL    HW2  522  -1.639  -0.720  -2.615
  175SOL     OW  523  -1.718  -0.062  -2.138
  175SOL    HW1  524  -1.663  -0.138  -2.172
  175SOL    HW2  525  -1.795  -0.098  -2.084
  176SOL     OW  526  -1.358  -0.032  -2.086
  176SOL    HW1  527  -1.371  -0.131  -2.091
  176SOL    HW2  528  -1.319  -0.007  -1.998
  177SOL     OW  529  -3.317  -0.410  -2.162
  177SOL    HW1  530  -3.241  -0.438  -2.220
  177SOL    HW2  531  -3.394  -0.382  -2.220
  178SOL     OW  532  -3.338  -1.645  -3.638
  178SOL    HW1  533  -3.402  -1.595  -3.579
  178SOL    HW2  534  -3.386  -1.721  -3.683
  179SOL     OW  535  -2.536  -1.292  -2.921
  179SOL    HW1  536  -2.459  -1.261  -2.865
  179SOL    HW2  537  -2.556  -1.224  -2.992
  180SOL     OW  538  -1.563  -0.921  -3.191
  180SOL    HW1  539  -1.556  -0.914  -3.091
  180SOL    HW2  540  -1.659  -0.933  -3.217
  181SOL     OW  541  -3.412  -0.681  -3.450
  181SOL    HW1  542  -3.452  -0.766  -3.485
  181SOL    HW2  543  -3.364  -0.633  -3.524
  182SOL     OW  544  -2.438  -1.980  -2.851
  182SOL    HW1  545  -2.519  -1.970  -2.907
  182SOL    HW2  546  -2.422  -1.896  -2.799
  183SOL     OW  547  -3.798  -1.231  -1.069
  183SOL    HW1  548  -3.719  -1.255  -1.126
  183SOL    HW2  549  -3.798  -1.132  -1.053
  184SOL     OW  550  -1.935  -1.790  -3.133
  184SOL    HW1  551  -2.017  -1.806  -3.078
  184SOL    HW2  552  -1.858  -1.769  -3.073
  185SOL     OW  553  -1.917  -1.610  -3.324
  185SOL    HW1  554  -1.979  -1.672  -3.276
  185SOL    HW2  555  -1.970  -1.554  -3.388
  186SOL     OW  556  -1.620  -1.627  -0.299
  186SOL    HW1  557  -1.618  -1.564  -0.221
  186SOL    HW2  558  -1.706  -1.614  -0.350
  187SOL     OW  559  -1.287  -2.764  -0.304
  187SOL    HW1  560  -1.191  -2.746  -0.284
  187SOL    HW2  561  -1.314  -2.852  -0.266
  188SOL     OW  562  -2.342  -2.573  -2.490
  188SOL    HW1  563  -2.329  -2.474  -2.489
  188SOL    HW2  564  -2.418  -2.596  -2.551
  189SOL     OW  565  -2.432  -2.655  -3.045
  189SOL    HW1  566  -2.368  -2.591  -3.001
  189SOL    HW2  567  -2.477  -2.711  -2.976
  190SOL     OW  568  -3.170  -2.105  -2.598
  190SOL    HW1  569  -3.225  -2.100  -2.515
  190SOL    HW2  570  -3.095  -2.169  -2.585
  191SOL     OW  571  -3.010  -2.465  -2.356
  191SOL    HW1  572  -3.054  -2.554  -2.344
  191SOL    HW2  573  -3.029  -2.407  -2.277
  192SOL     OW  574  -0.280  -2.142  -0.552
  192SOL    HW1  575  -0.335  -2.141  -0.469
  192SOL    HW2  576  -0.307  -2.066  -0.611
  193SOL     OW  577  -0.057  -1.539  -0.125
  193SOL    HW1  578  -0.150  -1.503  -0.122
  193SOL    HW2  579  -0.030  -1.569  -0.033
  194SOL     OW  580  -1.719  -2.522  -2.968
  194SOL    HW1  581  -1.735  -2.584  -3.045
  194SOL    HW2  582  -1.761  -2.561  -2.885
  195SOL     OW  583  -1.727  -2.291  -3.574
  195SOL    HW1  584  -1.784  -2.276  -3.493
  195SOL    HW2  585  -1.706  -2.203  -3.616
  196SOL     OW  586  -1.884  -2.510  -3.301
  196SOL    HW1  587  -1.899  -2.411  -3.299
  196SOL    HW2  588  -1.816  -2.532  -3.371
  197SOL     OW  589  -2.126  -1.877  -3.659
  197SOL    HW1  590  -2.119  -1.973  -3.632
  197SOL    HW2  591  -2.123  -1.819  -3.578
  198SOL     OW  592  -2.202  -2.244  -3.607
  198SOL    HW1  593  -2.209  -2.166  -3.546
  198SOL    HW2  594  -2.258  -2.319  -3.572
  199SOL     OW  595  -2.767  -2.859  -3.106
  199SOL    HW1  596  -2.848  -2.818  -3.065
  199SOL    HW2  597  -2.701  -2.882  -3.034
  200SOL     OW  598   0.835  -0.789  -1.126
  200SOL    HW1  599   0.794  -0.700  -1.147
  200SOL    HW2  600   0.812  -0.854  -1.198
  201SOL     OW  601  -2.940  -3.322  -2.854
  201SOL    HW1  602  -2.996  -3.240  -2.869
  201SOL    HW2  603  -2.998  -3.403  -2.855
  202SOL     OW  604  -3.691  -2.311  -3.073
  202SOL    HW1  605  -3.637  -2.341  -3.151
  202SOL    HW2  606  -3.740  -2.228  -3.096
  203SOL     OW  607  -4.053  -2.683  -2.723
  203SOL    HW1  608  -4.091  -2.775  -2.732
  203SOL    HW2  609  -4.115  -2.617  -2.765
  204SOL     OW  610  -3.372  -1.954  -3.601
  204SOL    HW1  611  -3.343  -2.004  -3.519
  204SOL    HW2  612  -3.470  -1.966  -3.615
  205SOL     OW  613  -3.614  -1.908  -3.277
  205SOL    HW1  614  -3.543  -1.873  -3.217
  205SOL    HW2  615  -3.574  -1.972  -3.343
  206SOL     OW  616  -2.997  -2.195  -3.595
  206SOL    HW1  617  -2.961  -2.113  -3.639
  206SOL    HW2  618  -2.945  -2.275  -3.624
  207SOL     OW  619  -2.641  -2.550  -3.806
  207SOL    HW1  620  -2.654  -2.484  -3.880
  207SOL    HW2  621  -2.567  -2.613  -3.831
  208SOL     OW  622  -2.679  -2.361  -4.019
  208SOL    HW1  623  -2.627  -2.327  -4.097
  208SOL    HW2  624  -2.772  -2.385  -4.048
  209SOL     OW  625  -3.515  -1.508  -3.476
  209SOL    HW1  626  -3.518  -1.469  -3.384
  209SOL    HW2  627  -3.601  -1.556  -3.494
  210SOL     OW  628  -3.332  -1.842  -2.505
  210SOL    HW1  629  -3.338  -1.859  -2.603
  210SOL    HW2  630  -3.333  -1.930  -2.456
  211SOL     OW  631  -1.210  -2.316  -3.403
  211SOL    HW1  632  -1.294  -2.369  -3.391
  211SOL    HW2  633  -1.160  -2.313  -3.316
  212SOL     OW  634  -0.494  -2.066  -3.456
  212SOL    HW1  635  -0.504  -2.020  -3.368
  212SOL    HW2  636  -0.454  -2.157  -3.442
  213SOL     OW  637  -0.757  -2.120  -3.635
  213SOL    HW1  638  -0.675  -2.104  -3.580
  213SOL    HW2  639  -0.834  -2.069  -3.597
  214SOL     OW  640  -3.760  -2.023  -3.036
  214SOL    HW1  641  -3.712  -1.985  -3.115
  214SOL    HW2  642  -3.855  -1.991  -3.036
  215SOL     OW  643  -3.780  -1.575  -2.487
  215SOL    HW1  644  -3.764  -1.672  -2.505
  215SOL    HW2  645  -3.696  -1.524  -2.506
  216SOL     OW  646  -3.357  -2.527  -2.175
  216SOL    HW1  647  -3.292  -2.589  -2.219
  216SOL    HW2  648  -3.357  -2.543  -2.076
  217SOL     OW  649  -2.748  -2.441  -2.200
  217SOL    HW1  650  -2.836  -2.395  -2.186
  217SOL    HW2  651  -2.763  -2.532  -2.238
  218SOL     OW  652  -3.890  -2.104  -1.855
  218SOL    HW1  653  -3.923  -2.012  -1.876
  218SOL    HW2  654  -3.967  -2.167  -1.849
  219SOL     OW  655  -2.596  -2.267  -2.137
  219SOL    HW1  656  -2.503  -2.289  -2.167
  219SOL    HW2  657  -2.658  -2.270  -2.215
  220SOL     OW  658  -2.782  -2.655  -2.288
  220SOL    HW1  659  -2.740  -2.688  -2.373
  220SOL    HW2  660  -2.817  -2.732  -2.236
  221SOL     OW  661  -3.143  -2.731  -2.319
  221SOL    HW1  662  -3.161  -2.734  -2.418
  221SOL    HW2  663  -3.154  -2.823  -2.281
  222SOL     OW  664  -1.732  -1.994  -3.608
  222SOL    HW1  665  -1.728  -1.908  -3.557
  222SOL    HW2  666  -1.818  -1.999  -3.658
  223SOL     OW  667  -4.262  -2.462  -2.863
  223SOL    HW1  668  -4.292  -2.396  -2.794
  223SOL    HW2  669  -4.342  -2.510  -2.900
  224SOL     OW  670  -0.275  -0.262  -1.880
  224SOL    HW1  671  -0.374  -0.247  -1.886
  224SOL    HW2  672  -0.248  -0.261  -1.784
  225SOL     OW  673   0.470  -0.173  -2.254
  225SOL    HW1  674   0.516  -0.104  -2.309
  225SOL    HW2  675   0.536  -0.244  -2.227
  226SOL     OW  676   0.016  -0.238  -2.140
  226SOL    HW1  677  -0.055  -0.305  -2.163
  226SOL    HW2  678   0.011  -0.215  -2.043
  227SOL     OW  679   0.009  -0.246  -2.500
  227SOL    HW1  680   0.101  -0.265  -2.466
  227SOL    HW2  681  -0.037  -0.183  -2.437
  228SOL     OW  682  -0.044  -0.340  -3.063
  228SOL    HW1  683  -0.103  -0.351  -2.983
  228SOL    HW2  684   0.049  -0.320  -3.034
  229SOL     OW  685   0.013  -0.213  -2.768
  229SOL    HW1  686  -0.066  -0.269  -2.794
  229SOL    HW2  687   0.024  -0.216  -2.668
  230SOL     OW  688   0.660  -0.402  -2.180
  230SOL    HW1  689   0.649  -0.432  -2.086
  230SOL    HW2  690   0.751  -0.428  -2.213
  231SOL     OW  691  -0.894  -0.603  -3.128
  231SOL    HW1  692  -0.992  -0.623  -3.119
  231SOL    HW2  693  -0.881  -0.504  -3.127
  232SOL     OW  694  -0.233  -0.336  -3.249
  232SOL    HW1  695  -0.162  -0.338  -3.179
  232SOL    HW2  696  -0.195  -0.302  -3.335
  233SOL     OW  697  -0.470  -0.410  -3.592
  233SOL    HW1  698  -0.512  -0.421  -3.502
  233SOL    HW2  699  -0.519  -0.340  -3.644
  234SOL     OW  700   0.297  -1.319  -2.748
  234SOL    HW1  701   0.206  -1.347  -2.718
  234SOL    HW2  702   0.320  -1.231  -2.708
  235SOL     OW  703  -0.325  -2.629  -2.463
  235SOL    HW1  704  -0.316  -2.618  -2.562
  235SOL    HW2  705  -0.420  -2.644  -2.439
  236SOL     OW  706   0.044  -1.967  -1.989
  236SOL    HW1  707   0.019  -1.958  -2.085
  236SOL    HW2  708   0.010  -2.054  -1.954
  237SOL     OW  709   0.010  -1.407  -2.654
  237SOL    HW1  710   0.019  -1.472  -2.579
  237SOL    HW2  711  -0.038  -1.450  -2.730
  238SOL     OW  712   0.158  -1.686  -1.972
  238SOL    HW1  713   0.111  -1.625  -1.908
  238SOL    HW2  714   0.113  -1.776  -1.970
  239SOL     OW  715   0.042  -1.535  -1.815
  239SOL    HW1  716   0.104  -1.465  -1.780
  239SOL    HW2  717  -0.052  -1.499  -1.815
  240SOL     OW  718  -0.240  -1.468  -1.830
  240SOL    HW1  719  -0.242  -1.368  -1.826
  240SOL    HW2  720  -0.236  -1.505  -1.737
  241SOL     OW  721  -2.092   0.317  -3.502
  241SOL    HW1  722  -2.116   0.221  -3.522
  241SOL    HW2  723  -2.157   0.377  -3.548
  242SOL     OW  724  -1.998   0.506  -3.301
  242SOL    HW1  725  -2.031   0.441  -3.370
  242SOL    HW2  726  -1.903   0.486  -3.279
  243SOL     OW  727   0.589  -0.810  -2.526
  243SOL    HW1  728   0.593  -0.832  -2.429
  243SOL    HW2  729   0.586  -0.894  -2.580
  244SOL     OW  730   0.693  -1.206  -1.902
  244SOL    HW1  731   0.614  -1.231  -1.847
  244SOL    HW2  732   0.771  -1.189  -1.843
  245SOL     OW  733   0.626  -0.501  -1.872
  245SOL    HW1  734   0.560  -0.576  -1.868
  245SOL    HW2  735   0.592  -0.425  -1.816
  246SOL     OW  736   0.222  -1.332  -1.712
  246SOL    HW1  737   0.218  -1.256  -1.777
  246SOL    HW2  738   0.266  -1.301  -1.628
  247SOL     OW  739   0.252  -0.297  -2.412
  247SOL    HW1  740   0.326  -0.255  -2.359
  247SOL    HW2  741   0.236  -0.390  -2.379
  248SOL     OW  742  -0.655  -0.287  -2.141
  248SOL    HW1  743  -0.619  -0.226  -2.211
  248SOL    HW2  744  -0.677  -0.376  -2.182
  249SOL     OW  745  -1.136  -0.653  -3.106
  249SOL    HW1  746  -1.188  -0.593  -3.167
  249SOL    HW2  747  -1.164  -0.637  -3.011
  250SOL     OW  748  -0.882  -0.046  -3.182
  250SOL    HW1  749  -0.913  -0.138  -3.159
  250SOL    HW2  750  -0.960   0.010  -3.211
  251SOL     OW  751  -1.002  -0.113  -2.539
  251SOL    HW1  752  -0.979  -0.178  -2.610
  251SOL    HW2  753  -1.025  -0.025  -2.580
  252SOL     OW  754  -0.736  -0.072  -2.331
  252SOL    HW1  755  -0.829  -0.104  -2.316
  252SOL    HW2  756  -0.737   0.022  -2.365
  253SOL     OW  757  -1.490   0.246  -3.837
  253SOL    HW1  758  -1.530   0.173  -3.781
  253SOL    HW2  759  -1.402   0.273  -3.798
  254SOL     OW  760  -1.846   0.234  -3.633
  254SOL    HW1  761  -1.931   0.263  -3.587
  254SOL    HW2  762  -1.831   0.291  -3.714
  255SOL     OW  763  -2.174  -0.008  -3.569
  255SOL    HW1  764  -2.112  -0.069  -3.519
  255SOL    HW2  765  -2.166  -0.025  -3.667
  256SOL     OW  766  -1.750   0.467  -3.233
  256SOL    HW1  767  -1.694   0.457  -3.315
  256SOL    HW2  768  -1.743   0.383  -3.178
  257SOL     OW  769  -1.321  -1.119  -3.134
  257SOL    HW1  770  -1.343  -1.091  -3.041
  257SOL    HW2  771  -1.371  -1.061  -3.199
  258SOL     OW  772  -1.021  -0.168  -2.287
  258SOL    HW1  773  -1.013  -0.146  -2.384
  258SOL    HW2  774  -1.068  -0.255  -2.275
  259SOL     OW  775  -0.452  -2.263  -1.637
  259SOL    HW1  776  -0.390  -2.284  -1.563
  259SOL    HW2  777  -0.403  -2.267  -1.724
  260SOL     OW  778  -1.588  -1.207  -0.404
  260SOL    HW1  779  -1.608  -1.139  -0.333
  260SOL    HW2  780  -1.493  -1.197  -0.434
  261SOL     OW  781  -3.924  -1.434  -2.667
  261SOL    HW1  782  -3.870  -1.486  -2.601
  261SOL    HW2  783  -3.995  -1.382  -2.619
  262SOL     OW  784  -4.075  -1.600  -2.846
  262SOL    HW1  785  -4.022  -1.542  -2.784
  262SOL    HW2  786  -4.171  -1.598  -2.820
  263SOL     OW  787  -4.034  -1.948  -3.012
  263SOL    HW1  788  -4.100  -2.016  -3.044
  263SOL    HW2  789  -4.062  -1.914  -2.923
  264SOL     OW  790  -1.898  -1.284  -3.825
  264SOL    HW1  791  -1.939  -1.374  -3.809
  264SOL    HW2  792  -1.834  -1.290  -3.902
  265SOL     OW  793  -2.053  -1.620  -3.766
  265SOL    HW1  794  -2.121  -1.582  -3.829
  265SOL    HW2  795  -2.078  -1.714  -3.743
  266SOL     OW  796  -1.722  -1.764  -3.472
  266SOL    HW1  797  -1.650  -1.744  -3.405
  266SOL    HW2  798  -1.773  -1.681  -3.492
  267SOL     OW  799  -0.158  -1.394  -3.350
  267SOL    HW1  800  -0.181  -1.477  -3.299
  267SOL    HW2  801  -0.063  -1.369  -3.332
  268SOL     OW  802  -1.132  -1.649  -3.559
  268SOL    HW1  803  -1.127  -1.610  -3.467
  268SOL    HW2  804  -1.226  -1.643  -3.592
  269SOL     OW  805   0.216  -0.283  -2.955
  269SOL    HW1  806   0.238  -0.192  -2.989
  269SOL    HW2  807   0.167  -0.276  -2.869
  270SOL     OW  808   0.458  -0.429  -2.916
  270SOL    HW1  809   0.373  -0.378  -2.930
  270SOL    HW2  810   0.536  -0.372  -2.940
    5.3416    5.3416    5.3416
