Generated by PDBParser
471
    1SOL     OW    1   0.009   0.948   2.872
    1SOL    HW1    2   0.069   1.000   2.934
    1SOL    HW2    3  -0.020   0.864   2.917
    2SOL     OW    4  -0.503   1.165   1.476
    2SOL    HW1    5  -0.580   1.129   1.530
    2SOL    HW2    6  -0.446   1.224   1.534
    3SOL     OW    7  -0.181   1.308   2.266
    3SOL    HW1    8  -0.252   1.324   2.198
    3SOL    HW2    9  -0.177   1.385   2.329
    4SOL     OW   10  -0.239   0.157   3.371
    4SOL    HW1   11  -0.206   0.231   3.313
    4SOL    HW2   12  -0.335   0.174   3.396
    5SOL     OW   13  -0.595   0.725   2.591
    5SOL    HW1   14  -0.581   0.737   2.493
    5SOL    HW2   15  -0.676   0.668   2.607
    6SOL     OW   16  -0.041   1.863   1.306
    6SOL    HW1   17  -0.041   1.780   1.361
    6SOL    HW2   18  -0.060   1.841   1.211
    7SOL     OW   19  -0.851   1.319   2.194
    7SOL    HW1   20  -0.898   1.280   2.114
    7SOL    HW2   21  -0.868   1.417   2.199
    8SOL     OW   22  -0.210   1.096   2.808
    8SOL    HW1   23  -0.130   1.042   2.832
    8SOL    HW2   24  -0.213   1.110   2.709
    9SOL     OW   25  -0.460   1.063   2.881
    9SOL    HW1   26  -0.518   1.085   2.802
    9SOL    HW2   27  -0.364   1.075   2.856
   10SOL     OW   28   0.237   0.203   3.873
   10SOL    HW1   29   0.233   0.287   3.819
   10SOL    HW2   30   0.268   0.127   3.815
   11SOL     OW   31  -0.135   0.960   3.683
   11SOL    HW1   32  -0.046   0.935   3.722
   11SOL    HW2   33  -0.149   0.912   3.596
   12SOL     OW   34  -0.599   1.352   1.296
   12SOL    HW1   35  -0.564   1.285   1.361
   12SOL    HW2   36  -0.699   1.354   1.299
   13SOL     OW   37  -0.486   0.222   3.422
   13SOL    HW1   38  -0.532   0.306   3.392
   13SOL    HW2   39  -0.486   0.217   3.522
   14SOL     OW   40  -0.126   0.101   3.635
   14SOL    HW1   41  -0.047   0.040   3.635
   14SOL    HW2   42  -0.158   0.115   3.542
   15SOL     OW   43  -0.712   1.069   1.621
   15SOL    HW1   44  -0.706   1.086   1.720
   15SOL    HW2   45  -0.802   1.096   1.588
   16SOL     OW   46  -0.183   1.339   2.902
   16SOL    HW1   47  -0.193   1.246   2.866
   16SOL    HW2   48  -0.244   1.401   2.852
   17SOL     OW   49  -0.203   2.075   1.347
   17SOL    HW1   50  -0.134   2.003   1.348
   17SOL    HW2   51  -0.196   2.127   1.262
   18SOL     OW   52  -0.914   0.631   3.234
   18SOL    HW1   53  -0.830   0.626   3.287
   18SOL    HW2   54  -0.918   0.554   3.170
   19SOL     OW   55  -0.165   2.234   1.546
   19SOL    HW1   56  -0.148   2.171   1.622
   19SOL    HW2   57  -0.181   2.182   1.462
   20SOL     OW   58   0.538   1.896   1.356
   20SOL    HW1   59   0.579   1.821   1.305
   20SOL    HW2   60   0.527   1.869   1.452
   21SOL     OW   61  -0.870   1.842   2.217
   21SOL    HW1   62  -0.788   1.791   2.192
   21SOL    HW2   63  -0.913   1.879   2.134
   22SOL     OW   64  -0.541   0.075   2.772
   22SOL    HW1   65  -0.591   0.025   2.842
   22SOL    HW2   66  -0.443   0.067   2.787
   23SOL     OW   67  -0.624   0.383   2.786
   23SOL    HW1   68  -0.598   0.286   2.781
   23SOL    HW2   69  -0.712   0.391   2.832
   24SOL     OW   70   1.020  -0.294   1.662
   24SOL    HW1   71   1.084  -0.355   1.710
   24SOL    HW2   72   0.947  -0.266   1.724
   25SOL     OW   73   0.873   0.318   0.950
   25SOL    HW1   74   0.959   0.307   0.899
   25SOL    HW2   75   0.890   0.364   1.037
   26SOL     OW   76   0.772   0.633   1.129
   26SOL    HW1   77   0.842   0.565   1.150
   26SOL    HW2   78   0.789   0.716   1.180
   27SOL     OW   79   1.654   0.474   2.987
   27SOL    HW1   80   1.704   0.443   3.068
   27SOL    HW2   81   1.557   0.452   2.998
   28SOL     OW   82   1.495   0.198   1.879
   28SOL    HW1   83   1.562   0.217   1.808
   28SOL    HW2   84   1.473   0.100   1.879
   29SOL     OW   85   0.350   0.585   2.051
   29SOL    HW1   86   0.437   0.539   2.034
   29SOL    HW2   87   0.318   0.630   1.968
   30SOL     OW   88   2.195  -0.350   2.734
   30SOL    HW1   89   2.148  -0.433   2.706
   30SOL    HW2   90   2.143  -0.305   2.807
   31SOL     OW   91   0.416  -0.713   1.550
   31SOL    HW1   92   0.443  -0.617   1.538
   31SOL    HW2   93   0.480  -0.772   1.501
   32SOL     OW   94   0.834  -0.727   2.722
   32SOL    HW1   95   0.868  -0.651   2.666
   32SOL    HW2   96   0.846  -0.706   2.819
   33SOL     OW   97   0.194   1.184   1.411
   33SOL    HW1   98   0.215   1.189   1.314
   33SOL    HW2   99   0.181   1.088   1.437
   34SOL     OW  100   0.688   0.227   2.104
   34SOL    HW1  101   0.690   0.195   2.199
   34SOL    HW2  102   0.692   0.148   2.043
   35SOL     OW  103   0.316   0.488   1.368
   35SOL    HW1  104   0.239   0.446   1.319
   35SOL    HW2  105   0.395   0.493   1.307
   36SOL     OW  106   0.595   0.456   2.001
   36SOL    HW1  107   0.599   0.449   1.901
   36SOL    HW2  108   0.630   0.371   2.042
   37SOL     OW  109   0.973  -0.423   1.411
   37SOL    HW1  110   1.026  -0.508   1.417
   37SOL    HW2  111   0.985  -0.371   1.496
   38SOL     OW  112   0.152   0.593   1.062
   38SOL    HW1  113   0.233   0.642   1.094
   38SOL    HW2  114   0.154   0.586   0.962
   39SOL     OW  115   0.454  -0.665   3.603
   39SOL    HW1  116   0.480  -0.684   3.508
   39SOL    HW2  117   0.363  -0.702   3.621
   40SOL     OW  118   0.173   1.090   3.042
   40SOL    HW1  119   0.133   1.182   3.033
   40SOL    HW2  120   0.270   1.094   3.021
   41SOL     OW  121   0.586   1.135   0.490
   41SOL    HW1  122   0.591   1.039   0.464
   41SOL    HW2  123   0.675   1.179   0.472
   42SOL     OW  124   0.374   0.726   1.150
   42SOL    HW1  125   0.427   0.642   1.159
   42SOL    HW2  126   0.432   0.799   1.113
   43SOL     OW  127   0.321  -0.962   2.965
   43SOL    HW1  128   0.248  -1.030   2.968
   43SOL    HW2  129   0.344  -0.941   2.870
   44SOL     OW  130   1.089  -1.381   3.866
   44SOL    HW1  131   1.030  -1.432   3.802
   44SOL    HW2  132   1.134  -1.306   3.817
   45SOL     OW  133   2.001  -1.727   3.815
   45SOL    HW1  134   2.021  -1.742   3.912
   45SOL    HW2  135   2.084  -1.699   3.767
   46SOL     OW  136   0.526   0.489   1.177
   46SOL    HW1  137   0.611   0.539   1.160
   46SOL    HW2  138   0.546   0.392   1.188
   47SOL     OW  139   0.211   0.603   0.785
   47SOL    HW1  140   0.309   0.593   0.768
   47SOL    HW2  141   0.179   0.691   0.749
   48SOL     OW  142   2.066  -0.579   2.656
   48SOL    HW1  143   2.008  -0.604   2.578
   48SOL    HW2  144   2.014  -0.591   2.741
   49SOL     OW  145   1.367  -0.357   3.534
   49SOL    HW1  146   1.404  -0.271   3.570
   49SOL    HW2  147   1.288  -0.384   3.588
   50SOL     OW  148   0.639  -0.970   2.849
   50SOL    HW1  149   0.697  -0.898   2.811
   50SOL    HW2  150   0.548  -0.965   2.807
   51SOL     OW  151   0.105   0.372   1.232
   51SOL    HW1  152   0.033   0.408   1.291
   51SOL    HW2  153   0.067   0.301   1.173
   52SOL     OW  154   0.029   0.287  -0.115
   52SOL    HW1  155  -0.022   0.282  -0.201
   52SOL    HW2  156  -0.008   0.220  -0.051
   53SOL     OW  157   1.965  -1.371   3.649
   53SOL    HW1  158   2.003  -1.362   3.556
   53SOL    HW2  159   1.865  -1.369   3.644
   54SOL     OW  160   0.003   0.551  -0.002
   54SOL    HW1  161   0.084   0.603  -0.028
   54SOL    HW2  162   0.008   0.459  -0.040
   55SOL     OW  163   1.725  -1.863   3.153
   55SOL    HW1  164   1.693  -1.836   3.062
   55SOL    HW2  165   1.691  -1.955   3.175
   56SOL     OW  166  -0.076   0.223   0.412
   56SOL    HW1  167   0.013   0.210   0.454
   56SOL    HW2  168  -0.109   0.316   0.429
   57SOL     OW  169   0.684   1.632   1.178
   57SOL    HW1  170   0.630   1.564   1.128
   57SOL    HW2  171   0.711   1.595   1.267
   58SOL     OW  172   1.587   1.300   1.994
   58SOL    HW1  173   1.612   1.291   1.898
   58SOL    HW2  174   1.500   1.253   2.010
   59SOL     OW  175   0.069   1.332   3.017
   59SOL    HW1  176  -0.022   1.334   2.975
   59SOL    HW2  177   0.120   1.414   2.990
   60SOL     OW  178   0.885  -1.501   2.692
   60SOL    HW1  179   0.962  -1.562   2.679
   60SOL    HW2  180   0.913  -1.406   2.675
   61SOL     OW  181   0.202  -1.377   3.138
   61SOL    HW1  182   0.129  -1.325   3.181
   61SOL    HW2  183   0.177  -1.474   3.134
   62SOL     OW  184   1.877  -1.457   4.013
   62SOL    HW1  185   1.790  -1.441   4.060
   62SOL    HW2  186   1.925  -1.370   4.001
   63SOL     OW  187  -0.129  -0.362   2.842
   63SOL    HW1  188  -0.033  -0.342   2.826
   63SOL    HW2  189  -0.146  -0.372   2.940
   64SOL     OW  190   2.555  -0.411   3.606
   64SOL    HW1  191   2.579  -0.338   3.670
   64SOL    HW2  192   2.625  -0.418   3.535
   65SOL     OW  193   0.763  -0.328   0.075
   65SOL    HW1  194   0.779  -0.365  -0.016
   65SOL    HW2  195   0.678  -0.365   0.112
   66SOL     OW  196   0.535  -0.435   3.717
   66SOL    HW1  197   0.505  -0.520   3.675
   66SOL    HW2  198   0.611  -0.396   3.664
   67SOL     OW  199   0.109  -0.081   3.635
   67SOL    HW1  200   0.196  -0.033   3.624
   67SOL    HW2  201   0.126  -0.179   3.647
   68SOL     OW  202  -0.056  -1.200   1.920
   68SOL    HW1  203   0.030  -1.245   1.896
   68SOL    HW2  204  -0.124  -1.269   1.945
   69SOL     OW  205   3.110   0.046   1.513
   69SOL    HW1  206   3.134   0.121   1.452
   69SOL    HW2  207   3.178   0.040   1.587
   70SOL     OW  208   1.258  -1.348   3.178
   70SOL    HW1  209   1.256  -1.447   3.161
   70SOL    HW2  210   1.273  -1.332   3.276
   71SOL     OW  211   1.643   1.393   2.242
   71SOL    HW1  212   1.622   1.359   2.150
   71SOL    HW2  213   1.743   1.402   2.252
   72SOL     OW  214   1.000   1.509   3.137
   72SOL    HW1  215   1.090   1.465   3.144
   72SOL    HW2  216   0.997   1.564   3.054
   73SOL     OW  217   2.147  -1.154   3.691
   73SOL    HW1  218   2.234  -1.185   3.728
   73SOL    HW2  219   2.084  -1.231   3.684
   74SOL     OW  220   0.739  -1.362   3.770
   74SOL    HW1  221   0.811  -1.423   3.738
   74SOL    HW2  222   0.652  -1.412   3.774
   75SOL     OW  223  -0.753   0.810   1.898
   75SOL    HW1  224  -0.714   0.875   1.963
   75SOL    HW2  225  -0.680   0.756   1.857
   76SOL     OW  226   0.234   1.517   0.623
   76SOL    HW1  227   0.277   1.601   0.591
   76SOL    HW2  228   0.136   1.533   0.637
   77SOL     OW  229  -0.435   0.951   1.329
   77SOL    HW1  230  -0.460   1.030   1.383
   77SOL    HW2  231  -0.343   0.919   1.355
   78SOL     OW  232   0.295   0.860  -0.628
   78SOL    HW1  233   0.311   0.889  -0.533
   78SOL    HW2  234   0.271   0.939  -0.684
   79SOL     OW  235   1.133  -1.930   3.483
   79SOL    HW1  236   1.071  -1.854   3.506
   79SOL    HW2  237   1.201  -1.939   3.555
   80SOL     OW  238   2.554  -1.484   2.266
   80SOL    HW1  239   2.611  -1.404   2.249
   80SOL    HW2  240   2.608  -1.567   2.256
   81SOL     OW  241   0.741  -1.003   1.101
   81SOL    HW1  242   0.708  -0.919   1.144
   81SOL    HW2  243   0.818  -1.039   1.154
   82SOL     OW  244  -0.582   0.547   1.280
   82SOL    HW1  245  -0.618   0.602   1.355
   82SOL    HW2  246  -0.616   0.453   1.288
   83SOL     OW  247   2.110  -0.716   0.166
   83SOL    HW1  248   2.108  -0.629   0.216
   83SOL    HW2  249   2.204  -0.735   0.137
   84SOL     OW  250   2.471  -1.470   3.136
   84SOL    HW1  251   2.485  -1.565   3.164
   84SOL    HW2  252   2.557  -1.420   3.141
   85SOL     OW  253   2.086   1.440   3.171
   85SOL    HW1  254   2.172   1.395   3.195
   85SOL    HW2  255   2.083   1.531   3.214
   86SOL     OW  256   1.170  -1.204   4.270
   86SOL    HW1  257   1.185  -1.116   4.226
   86SOL    HW2  258   1.256  -1.252   4.279
   87SOL     OW  259   0.301   1.760   0.983
   87SOL    HW1  260   0.222   1.700   0.976
   87SOL    HW2  261   0.310   1.793   1.077
   88SOL     OW  262   0.027   1.509   3.286
   88SOL    HW1  263   0.123   1.536   3.294
   88SOL    HW2  264   0.015   1.451   3.205
   89SOL     OW  265   1.469  -0.119   3.634
   89SOL    HW1  266   1.463  -0.019   3.630
   89SOL    HW2  267   1.444  -0.150   3.726
   90SOL     OW  268  -0.006  -1.230   3.261
   90SOL    HW1  269   0.030  -1.209   3.352
   90SOL    HW2  270  -0.104  -1.208   3.258
   91SOL     OW  271   0.006  -0.793   1.843
   91SOL    HW1  272   0.093  -0.842   1.844
   91SOL    HW2  273  -0.002  -0.741   1.758
   92SOL     OW  274   0.157  -0.585   0.535
   92SOL    HW1  275   0.122  -0.541   0.618
   92SOL    HW2  276   0.089  -0.650   0.501
   93SOL     OW  277  -0.156  -0.250   2.504
   93SOL    HW1  278  -0.169  -0.336   2.553
   93SOL    HW2  279  -0.201  -0.176   2.555
   94SOL     OW  280   2.119  -0.515   3.730
   94SOL    HW1  281   2.167  -0.429   3.745
   94SOL    HW2  282   2.177  -0.577   3.677
   95SOL     OW  283  -0.255   1.554   2.372
   95SOL    HW1  284  -0.258   1.622   2.298
   95SOL    HW2  285  -0.188   1.582   2.440
   96SOL     OW  286   0.168   1.743   2.446
   96SOL    HW1  287   0.162   1.766   2.349
   96SOL    HW2  288   0.251   1.689   2.463
   97SOL     OW  289   2.778  -0.423   3.270
   97SOL    HW1  290   2.698  -0.391   3.320
   97SOL    HW2  291   2.753  -0.440   3.175
   98SOL     OW  292  -0.205  -0.620   1.151
   98SOL    HW1  293  -0.252  -0.570   1.224
   98SOL    HW2  294  -0.253  -0.707   1.134
   99SOL     OW  295  -0.098  -0.363   0.514
   99SOL    HW1  296  -0.145  -0.358   0.602
   99SOL    HW2  297  -0.163  -0.394   0.443
  100SOL     OW  298   1.232  -1.359   2.848
  100SOL    HW1  299   1.211  -1.266   2.879
  100SOL    HW2  300   1.212  -1.424   2.921
  101SOL     OW  301   2.224   0.175   0.281
  101SOL    HW1  302   2.320   0.198   0.261
  101SOL    HW2  303   2.220   0.087   0.328
  102SOL     OW  304   1.306   1.269   0.283
  102SOL    HW1  305   1.364   1.188   0.292
  102SOL    HW2  306   1.345   1.330   0.214
  103SOL     OW  307   3.745  -1.553   2.055
  103SOL    HW1  308   3.736  -1.575   2.152
  103SOL    HW2  309   3.775  -1.634   2.005
  104SOL     OW  310   0.835   1.296   0.450
  104SOL    HW1  311   0.901   1.323   0.520
  104SOL    HW2  312   0.882   1.241   0.380
  105SOL     OW  313   1.047  -1.053   0.682
  105SOL    HW1  314   0.969  -1.011   0.730
  105SOL    HW2  315   1.089  -1.121   0.741
  106SOL     OW  316   1.733   1.022   0.376
  106SOL    HW1  317   1.688   0.939   0.410
  106SOL    HW2  318   1.696   1.102   0.424
  107SOL     OW  319   2.391   0.883   3.081
  107SOL    HW1  320   2.320   0.818   3.053
  107SOL    HW2  321   2.439   0.847   3.161
  108SOL     OW  322   0.138  -0.506   0.060
  108SOL    HW1  323   0.185  -0.554   0.134
  108SOL    HW2  324   0.039  -0.505   0.079
  109SOL     OW  325   0.926  -1.522   3.688
  109SOL    HW1  326   0.925  -1.530   3.589
  109SOL    HW2  327   0.940  -1.612   3.729
  110SOL     OW  328  -0.258  -0.268   2.272
  110SOL    HW1  329  -0.218  -0.261   2.363
  110SOL    HW2  330  -0.186  -0.282   2.204
  111SOL     OW  331   1.354  -0.256   4.102
  111SOL    HW1  332   1.375  -0.181   4.040
  111SOL    HW2  333   1.422  -0.258   4.176
  112SOL     OW  334   1.181  -1.776   3.951
  112SOL    HW1  335   1.249  -1.718   3.907
  112SOL    HW2  336   1.200  -1.872   3.929
  113SOL     OW  337   3.019  -1.532   1.282
  113SOL    HW1  338   2.946  -1.552   1.347
  113SOL    HW2  339   3.004  -1.583   1.198
  114SOL     OW  340   2.488   0.238   0.226
  114SOL    HW1  341   2.497   0.311   0.293
  114SOL    HW2  342   2.578   0.210   0.195
  115SOL     OW  343  -0.604  -0.441   1.650
  115SOL    HW1  344  -0.596  -0.540   1.646
  115SOL    HW2  345  -0.655  -0.408   1.570
  116SOL     OW  346  -0.338  -0.722   1.634
  116SOL    HW1  347  -0.246  -0.683   1.635
  116SOL    HW2  348  -0.332  -0.822   1.644
  117SOL     OW  349   0.766   0.161   4.190
  117SOL    HW1  350   0.726   0.124   4.106
  117SOL    HW2  351   0.728   0.252   4.206
  118SOL     OW  352  -0.352  -1.483   3.044
  118SOL    HW1  353  -0.412  -1.485   2.964
  118SOL    HW2  354  -0.355  -1.393   3.086
  119SOL     OW  355   1.195   1.825   0.815
  119SOL    HW1  356   1.132   1.897   0.787
  119SOL    HW2  357   1.279   1.830   0.760
  120SOL     OW  358   0.835  -0.939   0.813
  120SOL    HW1  359   0.804  -0.960   0.906
  120SOL    HW2  360   0.870  -0.845   0.809
  121SOL     OW  361   3.122  -0.961   2.318
  121SOL    HW1  362   3.219  -0.979   2.335
  121SOL    HW2  363   3.109  -0.865   2.293
  122SOL     OW  364  -0.491   1.000   1.064
  122SOL    HW1  365  -0.561   1.069   1.085
  122SOL    HW2  366  -0.426   0.993   1.140
  123SOL     OW  367   1.419   1.628   2.778
  123SOL    HW1  368   1.478   1.634   2.858
  123SOL    HW2  369   1.412   1.718   2.735
  124SOL     OW  370  -0.207  -0.997   1.820
  124SOL    HW1  371  -0.152  -1.072   1.857
  124SOL    HW2  372  -0.237  -1.020   1.727
  125SOL     OW  373   0.729   1.031   3.824
  125SOL    HW1  374   0.682   0.949   3.857
  125SOL    HW2  375   0.737   1.097   3.899
  126SOL     OW  376   2.218  -2.104   3.599
  126SOL    HW1  377   2.304  -2.061   3.571
  126SOL    HW2  378   2.220  -2.121   3.697
  127SOL     OW  379   0.999  -1.351   4.122
  127SOL    HW1  380   1.031  -1.362   4.028
  127SOL    HW2  381   1.064  -1.296   4.174
  128SOL     OW  382   3.176   0.255   1.343
  128SOL    HW1  383   3.085   0.246   1.302
  128SOL    HW2  384   3.245   0.240   1.273
  129SOL     OW  385   3.166  -0.575   2.096
  129SOL    HW1  386   3.101  -0.598   2.169
  129SOL    HW2  387   3.255  -0.552   2.136
  130SOL     OW  388   0.060  -1.558   2.418
  130SOL    HW1  389   0.088  -1.480   2.474
  130SOL    HW2  390   0.140  -1.617   2.401
  131SOL     OW  391  -0.340   1.081   0.803
  131SOL    HW1  392  -0.388   1.055   0.887
  131SOL    HW2  393  -0.381   1.034   0.725
  132SOL     OW  394   0.335  -1.943   2.855
  132SOL    HW1  395   0.401  -1.971   2.787
  132SOL    HW2  396   0.251  -1.912   2.810
  133SOL     OW  397   1.446  -1.023   1.641
  133SOL    HW1  398   1.484  -0.955   1.704
  133SOL    HW2  399   1.445  -1.112   1.686
  134SOL     OW  400  -0.653   0.828   0.924
  134SOL    HW1  401  -0.594   0.890   0.975
  134SOL    HW2  402  -0.742   0.870   0.910
  135SOL     OW  403   0.649   0.746  -0.271
  135SOL    HW1  404   0.713   0.669  -0.266
  135SOL    HW2  405   0.697   0.831  -0.246
  136SOL     OW  406   0.616   0.479  -0.681
  136SOL    HW1  407   0.593   0.577  -0.677
  136SOL    HW2  408   0.532   0.425  -0.685
  137SOL     OW  409   3.179  -0.649   2.645
  137SOL    HW1  410   3.118  -0.575   2.617
  137SOL    HW2  411   3.271  -0.634   2.609
  138SOL     OW  412   1.957   0.885   0.299
  138SOL    HW1  413   1.875   0.935   0.328
  138SOL    HW2  414   1.951   0.864   0.202
  139SOL     OW  415   0.555   0.731  -0.670
  139SOL    HW1  416   0.467   0.775  -0.656
  139SOL    HW2  417   0.610   0.787  -0.732
  140SOL     OW  418   3.718  -1.617   2.337
  140SOL    HW1  419   3.624  -1.602   2.366
  140SOL    HW2  420   3.779  -1.559   2.390
  141SOL     OW  421  -0.073   1.584   2.528
  141SOL    HW1  422   0.007   1.637   2.500
  141SOL    HW2  423  -0.100   1.609   2.620
  142SOL     OW  424   0.074   1.134   0.164
  142SOL    HW1  425   0.166   1.100   0.147
  142SOL    HW2  426   0.009   1.083   0.107
  143SOL     OW  427   1.901  -0.810   1.183
  143SOL    HW1  428   1.980  -0.753   1.206
  143SOL    HW2  429   1.817  -0.761   1.204
  144SOL     OW  430   1.659   1.693   1.343
  144SOL    HW1  431   1.719   1.756   1.294
  144SOL    HW2  432   1.686   1.690   1.439
  145SOL     OW  433   0.428   0.195   4.049
  145SOL    HW1  434   0.354   0.198   3.982
  145SOL    HW2  435   0.506   0.144   4.012
  146SOL     OW  436  -0.665   0.754   1.565
  146SOL    HW1  437  -0.633   0.716   1.652
  146SOL    HW2  438  -0.682   0.852   1.576
  147SOL     OW  439   1.733   0.279   3.626
  147SOL    HW1  440   1.730   0.187   3.664
  147SOL    HW2  441   1.642   0.321   3.633
  148SOL     OW  442   2.950  -0.713   3.010
  148SOL    HW1  443   2.874  -0.648   3.016
  148SOL    HW2  444   3.034  -0.669   3.043
  149SOL     OW  445   1.573  -1.545   2.035
  149SOL    HW1  446   1.591  -1.449   2.016
  149SOL    HW2  447   1.476  -1.564   2.019
  150SOL     OW  448   2.857  -0.630   3.370
  150SOL    HW1  449   2.883  -0.590   3.458
  150SOL    HW2  450   2.791  -0.570   3.325
  151SOL     OW  451   3.156  -0.976   3.274
  151SOL    HW1  452   3.201  -0.892   3.245
  151SOL    HW2  453   3.193  -1.053   3.223
  152SOL     OW  454   0.449  -0.159  -0.640
  152SOL    HW1  455   0.538  -0.118  -0.621
  152SOL    HW2  456   0.400  -0.174  -0.554
  153SOL     OW  457   0.702  -0.040  -0.585
  153SOL    HW1  458   0.752  -0.026  -0.670
  153SOL    HW2  459   0.755  -0.101  -0.525
  154SOL     OW  460   0.574  -1.066   3.083
  154SOL    HW1  461   0.589  -1.002   3.007
  154SOL    HW2  462   0.503  -1.028   3.145
  155SOL     OW  463   0.340  -1.258   2.922
  155SOL    HW1  464   0.307  -1.244   2.825
  155SOL    HW2  465   0.269  -1.315   2.967
  156SOL     OW  466   0.440  -1.337   3.253
  156SOL    HW1  467   0.434  -1.240   3.279
  156SOL    HW2  468   0.347  -1.360   3.217
  157SOL     OW  469   0.715  -1.234   2.823
  157SOL    HW1  470   0.750  -1.232   2.727
  157SOL    HW2  471   0.732  -1.141   2.856
    5.2793    5.2793    5.2793
