; ITP file created by ByteFF-ML, 2025-12-06 08:06:45.446319

[ atomtypes ]
;name           bonded.type        at.num        mass        charge   ptype           sigma         epsilon
 c0bf                                   6      0.0000       0.00000       A     3.31444e-01     4.12613e-01
 cl1bf                                 17      0.0000       0.00000       A     3.46707e-01     1.10492e+00
 c2bf                                   6      0.0000       0.00000       A     3.31560e-01     4.11574e-01
 c3bf                                   6      0.0000       0.00000       A     3.31501e-01     4.14051e-01
 c4bf                                   6      0.0000       0.00000       A     3.31325e-01     4.12233e-01
 c5bf                                   6      0.0000       0.00000       A     3.31459e-01     4.13115e-01
 c6bf                                   6      0.0000       0.00000       A     3.31487e-01     4.13095e-01
 c7bf                                   6      0.0000       0.00000       A     3.31527e-01     4.13634e-01
 c8bf                                   6      0.0000       0.00000       A     3.31508e-01     4.12865e-01
 c9bf                                   6      0.0000       0.00000       A     3.31549e-01     4.12434e-01
 c10bf                                  6      0.0000       0.00000       A     3.31524e-01     4.13492e-01
 c11bf                                  6      0.0000       0.00000       A     3.31477e-01     4.13846e-01
 n12bf                                  7      0.0000       0.00000       A     3.26639e-01     4.89084e-01
 c13bf                                  6      0.0000       0.00000       A     3.39834e-01     4.47883e-01
 o14bf                                  8      0.0000       0.00000       A     3.04672e-01     6.11430e-01
 c15bf                                  6      0.0000       0.00000       A     3.39970e-01     4.49282e-01
 c16bf                                  6      0.0000       0.00000       A     3.39695e-01     4.50020e-01
 c17bf                                  6      0.0000       0.00000       A     3.39807e-01     4.51065e-01
 c18bf                                  6      0.0000       0.00000       A     3.39783e-01     4.50599e-01
 c19bf                                  6      0.0000       0.00000       A     3.39773e-01     4.51249e-01
 n20bf                                  7      0.0000       0.00000       A     3.26602e-01     4.88281e-01
 c21bf                                  6      0.0000       0.00000       A     3.31258e-01     4.13621e-01
 c22bf                                  6      0.0000       0.00000       A     3.31371e-01     4.12927e-01
 o23bf                                  8      0.0000       0.00000       A     3.04582e-01     6.10219e-01
 n24bf                                  7      0.0000       0.00000       A     3.38377e-01     3.93517e-01
 s25bf                                 16      0.0000       0.00000       A     3.53468e-01     1.17897e+00
 h26bf                                  1      0.0000       0.00000       A     2.62453e-01     6.70317e-02
 h27bf                                  1      0.0000       0.00000       A     2.62523e-01     6.72328e-02
 h28bf                                  1      0.0000       0.00000       A     2.62474e-01     6.71323e-02
 h29bf                                  1      0.0000       0.00000       A     2.62534e-01     6.73797e-02
 h30bf                                  1      0.0000       0.00000       A     2.62372e-01     6.74212e-02
 h31bf                                  1      0.0000       0.00000       A     1.10580e-01     4.10525e-02
 h32bf                                  1      0.0000       0.00000       A     2.42179e-01     8.63601e-02
 h33bf                                  1      0.0000       0.00000       A     1.10612e-01     4.02241e-02
 c34bf                                  6      0.0000       0.00000       A     3.31347e-01     4.13267e-01
 c35bf                                  6      0.0000       0.00000       A     3.31421e-01     4.13824e-01
 c36bf                                  6      0.0000       0.00000       A     3.39969e-01     4.50893e-01
 n37bf                                  7      0.0000       0.00000       A     3.36930e-01     3.57427e-01
 c38bf                                  6      0.0000       0.00000       A     3.39827e-01     4.51767e-01
 c39bf                                  6      0.0000       0.00000       A     3.39882e-01     4.51317e-01
 c40bf                                  6      0.0000       0.00000       A     3.39758e-01     4.50040e-01
 h41bf                                  1      0.0000       0.00000       A     2.42170e-01     8.71342e-02
 h42bf                                  1      0.0000       0.00000       A     2.42170e-01     8.71342e-02
 h43bf                                  1      0.0000       0.00000       A     2.42257e-01     8.79530e-02
 h44bf                                  1      0.0000       0.00000       A     2.42257e-01     8.79530e-02
 h45bf                                  1      0.0000       0.00000       A     2.59883e-01     8.84270e-02
 h46bf                                  1      0.0000       0.00000       A     2.59883e-01     8.84270e-02
 h47bf                                  1      0.0000       0.00000       A     2.41989e-01     8.72555e-02
 h48bf                                  1      0.0000       0.00000       A     2.41989e-01     8.72555e-02
 h49bf                                  1      0.0000       0.00000       A     2.41989e-01     8.72555e-02
 c50bf                                  6      0.0000       0.00000       A     3.31656e-01     4.11194e-01
 o51bf                                  8      0.0000       0.00000       A     3.04848e-01     6.12895e-01
 n52bf                                  7      0.0000       0.00000       A     3.18436e-01     6.83644e-01
 c53bf                                  6      0.0000       0.00000       A     3.39787e-01     4.50128e-01
 c54bf                                  6      0.0000       0.00000       A     3.39787e-01     4.50128e-01
 h55bf                                  1      0.0000       0.00000       A     2.59758e-01     8.65469e-02
 h56bf                                  1      0.0000       0.00000       A     2.59758e-01     8.65469e-02
 h57bf                                  1      0.0000       0.00000       A     2.59710e-01     8.69571e-02
 h58bf                                  1      0.0000       0.00000       A     2.59950e-01     8.71566e-02
 h59bf                                  1      0.0000       0.00000       A     2.59950e-01     8.71566e-02
 h60bf                                  1      0.0000       0.00000       A     2.59873e-01     8.66777e-02
 h61bf                                  1      0.0000       0.00000       A     2.59873e-01     8.66777e-02
 h62bf                                  1      0.0000       0.00000       A     2.42033e-01     8.76162e-02
 h63bf                                  1      0.0000       0.00000       A     2.42033e-01     8.76162e-02
 h64bf                                  1      0.0000       0.00000       A     2.42033e-01     8.76162e-02
 h65bf                                  1      0.0000       0.00000       A     2.42033e-01     8.76162e-02
 h66bf                                  1      0.0000       0.00000       A     2.42033e-01     8.76162e-02
 h67bf                                  1      0.0000       0.00000       A     2.42033e-01     8.76162e-02
 h68bf                                  1      0.0000       0.00000       A     2.42061e-01     8.64671e-02
 h69bf                                  1      0.0000       0.00000       A     2.62479e-01     6.73685e-02

[ moleculetype ]
;name             nrexcl
 5a                    3

[ atoms ]
;       nr            type      resi   res      atom      cgnr      charge          mass ; qtot
         1            c0bf         1   UNL        c0         1    -0.01046       12.0110 ; qtot   -0.010
         2           cl1bf         1   UNL       cl1         2    -0.20961       35.4530 ; qtot   -0.220
         3            c2bf         1   UNL        c2         3    -0.05128       12.0110 ; qtot   -0.271
         4            c3bf         1   UNL        c3         4    -0.04515       12.0110 ; qtot   -0.317
         5            c4bf         1   UNL        c4         5    -0.15019       12.0110 ; qtot   -0.467
         6            c5bf         1   UNL        c5         6    -0.07620       12.0110 ; qtot   -0.543
         7            c6bf         1   UNL        c6         7    -0.10385       12.0110 ; qtot   -0.647
         8            c7bf         1   UNL        c7         8    -0.07815       12.0110 ; qtot   -0.725
         9            c8bf         1   UNL        c8         9    -0.10207       12.0110 ; qtot   -0.827
        10            c9bf         1   UNL        c9        10     0.12365       12.0110 ; qtot   -0.703
        11           c10bf         1   UNL       c10        11    -0.08876       12.0110 ; qtot   -0.792
        12           c11bf         1   UNL       c11        12     0.61204       12.0110 ; qtot   -0.180
        13           n12bf         1   UNL       n12        13    -0.50034       14.0070 ; qtot   -0.680
        14           c13bf         1   UNL       c13        14     0.09414       12.0110 ; qtot   -0.586
        15           o14bf         1   UNL       o14        15    -0.60204       15.9990 ; qtot   -1.188
        16           c15bf         1   UNL       c15        16     0.09822       12.0110 ; qtot   -1.090
        17           c16bf         1   UNL       c16        17    -0.07593       12.0110 ; qtot   -1.166
        18           c17bf         1   UNL       c17        18    -0.13491       12.0110 ; qtot   -1.301
        19           c18bf         1   UNL       c18        19    -0.06728       12.0110 ; qtot   -1.368
        20           c19bf         1   UNL       c19        20    -0.08796       12.0110 ; qtot   -1.456
        21           n20bf         1   UNL       n20        21    -0.49001       14.0070 ; qtot   -1.946
        22           c21bf         1   UNL       c21        22     0.53549       12.0110 ; qtot   -1.411
        23           c22bf         1   UNL       c22        23     0.38153       12.0110 ; qtot   -1.029
        24           o23bf         1   UNL       o23        24    -0.58023       15.9990 ; qtot   -1.609
        25           n24bf         1   UNL       n24        25    -0.61219       14.0070 ; qtot   -2.222
        26           s25bf         1   UNL       s25        26     0.02030       32.0670 ; qtot   -2.201
        27           h26bf         1   UNL       h26        27     0.12937        1.0080 ; qtot   -2.072
        28           h27bf         1   UNL       h27        28     0.12126        1.0080 ; qtot   -1.951
        29           h28bf         1   UNL       h28        29     0.12053        1.0080 ; qtot   -1.830
        30           h29bf         1   UNL       h29        30     0.13357        1.0080 ; qtot   -1.697
        31           h30bf         1   UNL       h30        31     0.13227        1.0080 ; qtot   -1.564
        32           h31bf         1   UNL       h31        32     0.32370        1.0080 ; qtot   -1.241
        33           h32bf         1   UNL       h32        33     0.07679        1.0080 ; qtot   -1.164
        34           h33bf         1   UNL       h33        34     0.34007        1.0080 ; qtot   -0.824
        35           c34bf         1   UNL       c34        35     0.28744       12.0110 ; qtot   -0.536
        36           c35bf         1   UNL       c35        36    -0.23576       12.0110 ; qtot   -0.772
        37           c36bf         1   UNL       c36        37     0.24225       12.0110 ; qtot   -0.530
        38           n37bf         1   UNL       n37        38    -0.71279       14.0070 ; qtot   -1.243
        39           c38bf         1   UNL       c38        39     0.15975       12.0110 ; qtot   -1.083
        40           c39bf         1   UNL       c39        40    -0.11333       12.0110 ; qtot   -1.196
        41           c40bf         1   UNL       c40        41     0.14641       12.0110 ; qtot   -1.050
        42           h41bf         1   UNL       h41        42     0.05577        1.0080 ; qtot   -0.994
        43           h42bf         1   UNL       h42        43     0.05577        1.0080 ; qtot   -0.938
        44           h43bf         1   UNL       h43        44     0.04433        1.0080 ; qtot   -0.894
        45           h44bf         1   UNL       h44        45     0.04433        1.0080 ; qtot   -0.850
        46           h45bf         1   UNL       h45        46     0.06561        1.0080 ; qtot   -0.784
        47           h46bf         1   UNL       h46        47     0.06561        1.0080 ; qtot   -0.718
        48           h47bf         1   UNL       h47        48     0.03413        1.0080 ; qtot   -0.684
        49           h48bf         1   UNL       h48        49     0.03413        1.0080 ; qtot   -0.650
        50           h49bf         1   UNL       h49        50     0.03413        1.0080 ; qtot   -0.616
        51           c50bf         1   UNL       c50        51     0.60518       12.0110 ; qtot   -0.011
        52           o51bf         1   UNL       o51        52    -0.60574       15.9990 ; qtot   -0.616
        53           n52bf         1   UNL       n52        53    -0.42066       14.0070 ; qtot   -1.037
        54           c53bf         1   UNL       c53        54     0.08301       12.0110 ; qtot   -0.954
        55           c54bf         1   UNL       c54        55     0.08301       12.0110 ; qtot   -0.871
        56           h55bf         1   UNL       h55        56     0.06130        1.0080 ; qtot   -0.810
        57           h56bf         1   UNL       h56        57     0.06130        1.0080 ; qtot   -0.749
        58           h57bf         1   UNL       h57        58     0.06316        1.0080 ; qtot   -0.685
        59           h58bf         1   UNL       h58        59     0.05027        1.0080 ; qtot   -0.635
        60           h59bf         1   UNL       h59        60     0.05027        1.0080 ; qtot   -0.585
        61           h60bf         1   UNL       h60        61     0.05517        1.0080 ; qtot   -0.530
        62           h61bf         1   UNL       h61        62     0.05517        1.0080 ; qtot   -0.474
        63           h62bf         1   UNL       h62        63     0.04477        1.0080 ; qtot   -0.430
        64           h63bf         1   UNL       h63        64     0.04477        1.0080 ; qtot   -0.385
        65           h64bf         1   UNL       h64        65     0.04477        1.0080 ; qtot   -0.340
        66           h65bf         1   UNL       h65        66     0.04477        1.0080 ; qtot   -0.295
        67           h66bf         1   UNL       h66        67     0.04477        1.0080 ; qtot   -0.251
        68           h67bf         1   UNL       h67        68     0.04477        1.0080 ; qtot   -0.206
        69           h68bf         1   UNL       h68        69     0.07796        1.0080 ; qtot   -0.128
        70           h69bf         1   UNL       h69        70     0.12788        1.0080 ; qtot   -0.000

[ bonds ]
;       ai        aj funct               r               k
         1         3     1        0.143251   246658.317236
         1         7     1        0.142268   273869.767187
         1        11     1        0.142057   276070.299902
         2        10     1        0.175826   147740.375146
         3         4     1        0.141786   276931.768750
         3         8     1        0.142184   274249.682764
         4         5     1        0.138315   334818.317871
         4        27     1        0.108591   318819.063477
         5         6     1        0.142258   260708.758203
         5        12     1        0.150361   175537.046265
         6         7     1        0.137671   366470.466846
         6        70     1        0.108516   321365.853857
         7        28     1        0.108647   318139.469922
         8         9     1        0.137826   358184.364355
         8        29     1        0.108651   318098.891455
         9        10     1        0.141676   266190.911621
         9        30     1        0.108463   325190.827637
        10        11     1        0.137674   346418.192285
        11        31     1        0.108526   321805.909326
        12        13     1        0.136823   297762.388867
        12        15     1        0.123502   586235.909570
        13        14     1        0.146442   190096.160913
        13        32     1        0.101249   416538.191504
        14        16     1        0.154744   156899.144507
        14        20     1        0.153874   173183.444116
        14        33     1        0.109299   301709.557715
        16        17     1        0.153890   171755.268506
        16        21     1        0.146250   191046.869189
        16        69     1        0.109290   301765.586133
        17        18     1        0.154579   164893.255688
        17        56     1        0.109326   300596.548340
        17        57     1        0.109326   300596.548340
        18        19     1        0.154661   163666.440186
        18        51     1        0.153191   158389.847729
        18        58     1        0.109414   302100.760693
        19        20     1        0.153693   181138.049390
        19        59     1        0.109447   297470.142188
        19        60     1        0.109447   297470.142188
        20        61     1        0.109408   298814.185791
        20        62     1        0.109408   298814.185791
        21        22     1        0.136095   315450.182471
        21        34     1        0.101409   412617.504639
        22        23     1        0.149761   181928.244165
        22        24     1        0.123205   595504.348047
        23        25     1        0.130744   394780.497705
        23        26     1        0.175753   114860.619019
        25        35     1        0.137483   250388.573877
        26        36     1        0.173418   163411.796899
        35        36     1        0.137232   358668.241504
        35        40     1        0.150284   209899.921094
        36        37     1        0.150545   205958.217187
        37        38     1        0.146468   191918.016602
        37        42     1        0.110015   279945.249805
        37        43     1        0.110015   279945.249805
        38        39     1        0.146781   189560.941406
        38        41     1        0.146077   206296.839258
        39        40     1        0.153813   178870.826514
        39        44     1        0.109814   285833.034668
        39        45     1        0.109814   285833.034668
        40        46     1        0.109539   296322.146973
        40        47     1        0.109539   296322.146973
        41        48     1        0.109765   288786.094922
        41        49     1        0.109765   288786.094922
        41        50     1        0.109765   288786.094922
        51        52     1        0.123512   586720.399609
        51        53     1        0.137606   276714.984229
        53        54     1        0.145947   208517.482446
        53        55     1        0.145947   208517.482446
        54        63     1        0.109324   300806.693213
        54        64     1        0.109324   300806.693213
        54        65     1        0.109324   300806.693213
        55        66     1        0.109324   300806.693213
        55        67     1        0.109324   300806.693213
        55        68     1        0.109324   300806.693213

[ angles ]
;       ai        aj        ak funct           theta             cth
         1         3         4     1      119.176514      772.804132
         1         3         8     1      118.811058      702.702660
         1         7         6     1      120.803368      556.004479
         1         7        28     1      119.034164      437.999795
         1        11        10     1      119.829544      517.031722
         1        11        31     1      119.766357      425.101767
         2        10         9     1      118.445641      399.962558
         2        10        11     1      119.932350      335.954911
         3         1         7     1      118.795128      673.389761
         3         1        11     1      119.390640      748.383505
         3         4         5     1      121.179115      590.872657
         3         4        27     1      119.317825      419.345065
         3         8         9     1      121.113686      566.343433
         3         8        29     1      119.092224      431.656505
         4         3         8     1      121.957375      409.321653
         4         5         6     1      119.449081      630.147710
         4         5        12     1      120.010010      507.826041
         5         4        27     1      119.598373      411.680261
         5         6         7     1      120.588036      681.998257
         5         6        70     1      119.235794      421.258113
         5        12        13     1      115.954224      484.370430
         5        12        15     1      121.405136      632.506062
         6         5        12     1      120.448776      579.995253
         6         7        28     1      120.162743      441.435303
         7         1        11     1      121.850914      410.884173
         7         6        70     1      120.205734      418.935769
         8         9        10     1      119.170532      616.542049
         8         9        30     1      121.246277      425.876819
         9         8        29     1      119.647438      439.636086
         9        10        11     1      121.641884      625.566352
        10         9        30     1      119.662086      438.515900
        10        11        31     1      120.308205      427.406077
        12        13        14     1      122.599991      525.243116
        12        13        32     1      118.203125      409.309906
        13        12        15     1      122.491714      599.865678
        13        14        16     1      111.255417      550.240881
        13        14        20     1      111.650047      629.802193
        13        14        33     1      106.297012      530.622891
        14        13        32     1      116.329239      413.051923
        14        16        17     1      110.936119      562.812354
        14        16        21     1      111.225784      547.852140
        14        16        69     1      107.765198      470.820535
        14        20        19     1      111.594437      623.557093
        14        20        61     1      108.989258      497.304624
        14        20        62     1      108.989258      497.304624
        16        14        20     1      110.850082      555.805354
        16        14        33     1      107.680099      473.262585
        16        17        18     1      111.939430      596.757301
        16        17        56     1      109.082336      493.142969
        16        17        57     1      109.082336      493.142969
        16        21        22     1      123.281532      523.533821
        16        21        34     1      117.985329      388.342599
        17        16        21     1      111.416893      612.846063
        17        16        69     1      108.673912      471.627763
        17        18        19     1      110.560959      569.917990
        17        18        51     1      110.802452      642.130488
        17        18        58     1      107.640671      495.211858
        18        17        56     1      109.789185      465.155383
        18        17        57     1      109.789185      465.155383
        18        19        20     1      111.603378      627.166571
        18        19        59     1      109.459435      468.787845
        18        19        60     1      109.459435      468.787845
        18        51        52     1      120.367775      453.866799
        18        51        53     1      118.348633      449.080890
        19        18        51     1      111.026161      653.509377
        19        18        58     1      107.798851      493.236244
        19        20        61     1      109.998474      502.411408
        19        20        62     1      109.998474      502.411408
        20        14        33     1      108.807823      472.036804
        20        19        59     1      109.708351      513.116564
        20        19        60     1      109.708351      513.116564
        21        16        69     1      106.369919      527.599138
        21        22        23     1      114.245560      430.111414
        21        22        24     1      124.890869      615.174089
        22        21        34     1      117.270615      420.964947
        22        23        25     1      124.340652      359.309363
        22        23        26     1      120.844772      468.365589
        23        22        24     1      120.964073      537.680773
        23        25        35     1      111.406593      328.705787
        23        26        36     1       88.551132      167.360000
        25        23        26     1      114.891418      167.360000
        25        35        36     1      115.272217      312.892188
        25        35        40     1      122.848999      461.667684
        26        36        35     1      110.263878      167.360000
        26        36        37     1      125.788002      401.332369
        35        36        37     1      123.996292      562.620314
        35        40        39     1      109.429955      644.587349
        35        40        46     1      109.759384      484.571854
        35        40        47     1      109.759384      484.571854
        36        35        40     1      121.676254      406.530862
        36        37        38     1      110.200546      563.933816
        36        37        42     1      110.205734      462.983196
        36        37        43     1      110.205734      462.983196
        37        38        39     1      111.045578      613.756014
        37        38        41     1      111.203835      630.245325
        38        37        42     1      109.551048      459.134690
        38        37        43     1      109.551048      459.134690
        38        39        40     1      112.270889      625.644432
        38        39        44     1      109.041969      476.770682
        38        39        45     1      109.041969      476.770682
        38        41        48     1      110.858498      481.423224
        38        41        49     1      110.858498      481.423224
        38        41        50     1      110.858498      481.423224
        39        38        41     1      112.192528      649.121399
        39        40        46     1      110.261795      502.853519
        39        40        47     1      110.261795      502.853519
        40        39        44     1      109.631447      493.664916
        40        39        45     1      109.631447      493.664916
        42        37        43     1      106.585083      354.341693
        44        39        45     1      107.114723      348.812845
        46        40        47     1      106.901878      363.316136
        48        41        49     1      108.062943      347.504005
        48        41        50     1      108.062943      347.504005
        49        41        50     1      108.062943      347.504005
        51        18        58     1      108.212730      515.178845
        51        53        54     1      122.129654      505.902714
        51        53        55     1      122.129654      505.902714
        52        51        53     1      121.081711      636.267423
        53        54        63     1      110.326584      477.859265
        53        54        64     1      110.326584      477.859265
        53        54        65     1      110.326584      477.859265
        53        55        66     1      110.326584      477.859265
        53        55        67     1      110.326584      477.859265
        53        55        68     1      110.326584      477.859265
        54        53        55     1      114.947632      573.331217
        56        17        57     1      107.084274      355.159487
        59        19        60     1      106.645180      359.821255
        61        20        62     1      106.839844      356.387024
        63        54        64     1      108.724709      349.793087
        63        54        65     1      108.724709      349.793087
        64        54        65     1      108.724709      349.793087
        66        55        67     1      108.724709      349.793087
        66        55        68     1      108.724709      349.793087
        67        55        68     1      108.724709      349.793087

[ dihedrals ] ; propers for gromacs 4.5 or higher, use funct 9
;       ai        aj        ak        al funct           phase               k        pn
         1         3         4         5     9        0.000000       -0.125053         1
         1         3         4         5     9      180.000000       16.235153         2
         1         3         4         5     9        0.000000       -0.862882         3
         1         3         4         5     9      180.000000       -0.348573         4
         1         3         4        27     9        0.000000       -0.123483         1
         1         3         4        27     9      180.000000       12.390443         2
         1         3         4        27     9        0.000000       -0.149591         3
         1         3         4        27     9      180.000000        0.011009         4
         1         3         8         9     9        0.000000       -0.110602         1
         1         3         8         9     9      180.000000       16.495490         2
         1         3         8         9     9        0.000000       -1.003462         3
         1         3         8         9     9      180.000000       -0.305798         4
         1         3         8        29     9        0.000000       -0.137325         1
         1         3         8        29     9      180.000000       12.355797         2
         1         3         8        29     9        0.000000       -0.182348         3
         1         3         8        29     9      180.000000       -0.020447         4
         1         7         6         5     9        0.000000       -0.130432         1
         1         7         6         5     9      180.000000       20.837336         2
         1         7         6         5     9        0.000000       -1.593588         3
         1         7         6         5     9      180.000000       -0.552662         4
         1         7         6        70     9        0.000000        0.053601         1
         1         7         6        70     9      180.000000       16.201957         2
         1         7         6        70     9        0.000000       -0.459417         3
         1         7         6        70     9      180.000000       -0.039737         4
         1        11        10         2     9        0.000000        0.212906         1
         1        11        10         2     9      180.000000       21.531538         2
         1        11        10         2     9        0.000000        0.255388         3
         1        11        10         2     9      180.000000       -0.911937         4
         1        11        10         9     9        0.000000       -0.143069         1
         1        11        10         9     9      180.000000       19.193951         2
         1        11        10         9     9        0.000000       -1.346734         3
         1        11        10         9     9      180.000000       -0.479917         4
         2        10         9         8     9        0.000000        0.232148         1
         2        10         9         8     9      180.000000       16.312054         2
         2        10         9         8     9        0.000000        0.176382         3
         2        10         9         8     9      180.000000       -0.394155         4
         2        10         9        30     9        0.000000        0.146925         1
         2        10         9        30     9      180.000000       12.284303         2
         2        10         9        30     9        0.000000       -0.141511         3
         2        10         9        30     9      180.000000        0.212167         4
         2        10        11        31     9        0.000000        0.080026         1
         2        10        11        31     9      180.000000       14.486075         2
         2        10        11        31     9        0.000000       -0.034064         3
         2        10        11        31     9      180.000000        0.283981         4
         3         1         7         6     9        0.000000       -0.203697         1
         3         1         7         6     9      180.000000       15.965431         2
         3         1         7         6     9        0.000000       -1.028490         3
         3         1         7         6     9      180.000000       -0.288089         4
         3         1         7        28     9        0.000000       -0.204276         1
         3         1         7        28     9      180.000000       12.196297         2
         3         1         7        28     9        0.000000       -0.114555         3
         3         1         7        28     9      180.000000       -0.055671         4
         3         1        11        10     9        0.000000       -0.219976         1
         3         1        11        10     9      180.000000       16.261989         2
         3         1        11        10     9        0.000000       -0.863030         3
         3         1        11        10     9      180.000000       -0.314449         4
         3         1        11        31     9        0.000000       -0.261417         1
         3         1        11        31     9      180.000000       12.405624         2
         3         1        11        31     9        0.000000       -0.255467         3
         3         1        11        31     9      180.000000        0.022213         4
         3         4         5         6     9        0.000000       -0.071931         1
         3         4         5         6     9      180.000000       19.938270         2
         3         4         5         6     9        0.000000       -1.537624         3
         3         4         5         6     9      180.000000       -0.562185         4
         3         4         5        12     9        0.000000        0.304392         1
         3         4         5        12     9      180.000000       16.279447         2
         3         4         5        12     9        0.000000       -0.247901         3
         3         4         5        12     9      180.000000       -0.506040         4
         3         8         9        10     9        0.000000       -0.114665         1
         3         8         9        10     9      180.000000       20.354726         2
         3         8         9        10     9        0.000000       -1.568973         3
         3         8         9        10     9      180.000000       -0.419229         4
         3         8         9        30     9        0.000000       -0.022365         1
         3         8         9        30     9      180.000000       16.094596         2
         3         8         9        30     9        0.000000       -0.613928         3
         3         8         9        30     9      180.000000        0.024941         4
         4         3         1         7     9        0.000000       -0.018019         1
         4         3         1         7     9      180.000000       10.819907         2
         4         3         1         7     9        0.000000       -0.767580         3
         4         3         1         7     9      180.000000       -0.166142         4
         4         3         1        11     9        0.000000        0.122922         1
         4         3         1        11     9      180.000000       11.046463         2
         4         3         1        11     9        0.000000       -0.774180         3
         4         3         1        11     9      180.000000       -0.198510         4
         4         3         8         9     9        0.000000       -0.245053         1
         4         3         8         9     9      180.000000       13.286759         2
         4         3         8         9     9        0.000000       -0.657190         3
         4         3         8         9     9      180.000000       -0.163761         4
         4         3         8        29     9        0.000000       -0.217679         1
         4         3         8        29     9      180.000000       11.193361         2
         4         3         8        29     9        0.000000       -0.493614         3
         4         3         8        29     9      180.000000        0.056771         4
         4         5         6         7     9        0.000000       -0.025141         1
         4         5         6         7     9      180.000000       16.435466         2
         4         5         6         7     9        0.000000       -1.141064         3
         4         5         6         7     9      180.000000       -0.339468         4
         4         5         6        70     9        0.000000        0.057642         1
         4         5         6        70     9      180.000000       12.469459         2
         4         5         6        70     9        0.000000       -0.599197         3
         4         5         6        70     9      180.000000        0.041241         4
         4         5        12        13     9        0.000000       -0.195363         1
         4         5        12        13     9      180.000000        2.742921         2
         4         5        12        13     9        0.000000        0.311955         3
         4         5        12        13     9      180.000000       -0.446577         4
         4         5        12        15     9        0.000000        0.446120         1
         4         5        12        15     9      180.000000        3.291999         2
         4         5        12        15     9        0.000000        0.022343         3
         4         5        12        15     9      180.000000       -0.011358         4
         5         4         3         8     9        0.000000       -0.221485         1
         5         4         3         8     9      180.000000       13.666896         2
         5         4         3         8     9        0.000000       -0.768247         3
         5         4         3         8     9      180.000000       -0.169721         4
         5         6         7        28     9        0.000000       -0.001839         1
         5         6         7        28     9      180.000000       15.931092         2
         5         6         7        28     9        0.000000       -0.255907         3
         5         6         7        28     9      180.000000        0.031964         4
         5        12        13        14     9        0.000000        2.581391         1
         5        12        13        14     9      180.000000       11.074145         2
         5        12        13        14     9        0.000000        1.635916         3
         5        12        13        14     9      180.000000       -0.141815         4
         5        12        13        32     9        0.000000       -0.786648         1
         5        12        13        32     9      180.000000       11.074342         2
         5        12        13        32     9        0.000000        0.693108         3
         5        12        13        32     9      180.000000        0.870524         4
         6         5         4        27     9        0.000000        0.067732         1
         6         5         4        27     9      180.000000       15.088447         2
         6         5         4        27     9        0.000000       -0.465353         3
         6         5         4        27     9      180.000000        0.071849         4
         6         5        12        13     9        0.000000        0.312710         1
         6         5        12        13     9      180.000000        2.948130         2
         6         5        12        13     9        0.000000        0.190982         3
         6         5        12        13     9      180.000000       -0.405401         4
         6         5        12        15     9        0.000000       -0.528996         1
         6         5        12        15     9      180.000000        3.516970         2
         6         5        12        15     9        0.000000        0.046488         3
         6         5        12        15     9      180.000000       -0.019591         4
         6         7         1        11     9        0.000000       -0.108117         1
         6         7         1        11     9      180.000000       13.049657         2
         6         7         1        11     9        0.000000       -0.644403         3
         6         7         1        11     9      180.000000       -0.146986         4
         7         1         3         8     9        0.000000       -0.091637         1
         7         1         3         8     9      180.000000       10.864862         2
         7         1         3         8     9        0.000000       -0.891216         3
         7         1         3         8     9      180.000000       -0.148760         4
         7         1        11        10     9        0.000000       -0.073377         1
         7         1        11        10     9      180.000000       14.098628         2
         7         1        11        10     9        0.000000       -0.691041         3
         7         1        11        10     9      180.000000       -0.196031         4
         7         1        11        31     9        0.000000       -0.133145         1
         7         1        11        31     9      180.000000       11.698232         2
         7         1        11        31     9        0.000000       -0.448288         3
         7         1        11        31     9      180.000000        0.085733         4
         7         6         5        12     9        0.000000        0.239278         1
         7         6         5        12     9      180.000000       12.813790         2
         7         6         5        12     9        0.000000       -0.111832         3
         7         6         5        12     9      180.000000       -0.271670         4
         8         3         1        11     9        0.000000        0.065896         1
         8         3         1        11     9      180.000000       11.006384         2
         8         3         1        11     9        0.000000       -0.903544         3
         8         3         1        11     9      180.000000       -0.159103         4
         8         3         4        27     9        0.000000       -0.056462         1
         8         3         4        27     9      180.000000       10.956609         2
         8         3         4        27     9        0.000000       -0.388385         3
         8         3         4        27     9      180.000000        0.113762         4
         8         9        10        11     9        0.000000       -0.072230         1
         8         9        10        11     9      180.000000       15.003658         2
         8         9        10        11     9        0.000000       -1.100913         3
         8         9        10        11     9      180.000000       -0.219510         4
         9        10        11        31     9        0.000000       -0.056191         1
         9        10        11        31     9      180.000000       14.679912         2
         9        10        11        31     9        0.000000       -0.477281         3
         9        10        11        31     9      180.000000        0.049033         4
        10         9         8        29     9        0.000000        0.050666         1
        10         9         8        29     9      180.000000       15.802587         2
        10         9         8        29     9        0.000000       -0.404166         3
        10         9         8        29     9      180.000000        0.141333         4
        11         1         7        28     9        0.000000       -0.100467         1
        11         1         7        28     9      180.000000       11.409302         2
        11         1         7        28     9        0.000000       -0.396892         3
        11         1         7        28     9      180.000000        0.010526         4
        11        10         9        30     9        0.000000       -0.108997         1
        11        10         9        30     9      180.000000       12.206815         2
        11        10         9        30     9        0.000000       -0.561829         3
        11        10         9        30     9      180.000000        0.094391         4
        12         5         4        27     9        0.000000        0.067408         1
        12         5         4        27     9      180.000000       13.259986         2
        12         5         4        27     9        0.000000       -0.250918         3
        12         5         4        27     9      180.000000        0.125626         4
        12         5         6        70     9        0.000000        0.099244         1
        12         5         6        70     9      180.000000       11.650478         2
        12         5         6        70     9        0.000000       -0.321842         3
        12         5         6        70     9      180.000000        0.038108         4
        12        13        14        16     9        0.000000        1.053809         1
        12        13        14        16     9      180.000000       -0.544647         2
        12        13        14        16     9        0.000000        0.294834         3
        12        13        14        16     9      180.000000        0.178243         4
        12        13        14        20     9        0.000000       -0.105349         1
        12        13        14        20     9      180.000000       -0.254055         2
        12        13        14        20     9        0.000000        0.428685         3
        12        13        14        20     9      180.000000       -0.020962         4
        12        13        14        33     9        0.000000       -0.064859         1
        12        13        14        33     9      180.000000        0.123614         2
        12        13        14        33     9        0.000000        0.177818         3
        12        13        14        33     9      180.000000        0.181659         4
        13        14        16        17     9        0.000000       -0.737336         1
        13        14        16        17     9      180.000000        0.029051         2
        13        14        16        17     9        0.000000        0.050037         3
        13        14        16        17     9      180.000000        0.314765         4
        13        14        16        21     9        0.000000        2.739849         1
        13        14        16        21     9      180.000000        0.066991         2
        13        14        16        21     9        0.000000       -0.533851         3
        13        14        16        21     9      180.000000        0.061926         4
        13        14        16        69     9        0.000000       -0.503268         1
        13        14        16        69     9      180.000000        0.049471         2
        13        14        16        69     9        0.000000        0.352037         3
        13        14        16        69     9      180.000000       -0.028948         4
        13        14        20        19     9        0.000000       -0.396447         1
        13        14        20        19     9      180.000000        0.588701         2
        13        14        20        19     9        0.000000        0.149517         3
        13        14        20        19     9      180.000000        0.174888         4
        13        14        20        61     9        0.000000        0.027876         1
        13        14        20        61     9      180.000000        0.097099         2
        13        14        20        61     9        0.000000        0.347440         3
        13        14        20        61     9      180.000000       -0.079770         4
        13        14        20        62     9        0.000000        0.027876         1
        13        14        20        62     9      180.000000        0.097099         2
        13        14        20        62     9        0.000000        0.347440         3
        13        14        20        62     9      180.000000       -0.079770         4
        14        13        12        15     9        0.000000       -1.236715         1
        14        13        12        15     9      180.000000        8.480856         2
        14        13        12        15     9        0.000000        0.343636         3
        14        13        12        15     9      180.000000       -0.742552         4
        14        16        17        18     9        0.000000        3.457603         1
        14        16        17        18     9      180.000000       -1.753696         2
        14        16        17        18     9        0.000000       -0.098468         3
        14        16        17        18     9      180.000000        0.004361         4
        14        16        17        56     9        0.000000       -0.092937         1
        14        16        17        56     9      180.000000        0.067401         2
        14        16        17        56     9        0.000000        0.169430         3
        14        16        17        56     9      180.000000        0.048297         4
        14        16        17        57     9        0.000000       -0.092937         1
        14        16        17        57     9      180.000000        0.067401         2
        14        16        17        57     9        0.000000        0.169430         3
        14        16        17        57     9      180.000000        0.048297         4
        14        16        21        22     9        0.000000        1.041308         1
        14        16        21        22     9      180.000000       -0.423149         2
        14        16        21        22     9        0.000000        0.330451         3
        14        16        21        22     9      180.000000        0.174665         4
        14        16        21        34     9        0.000000        0.617191         1
        14        16        21        34     9      180.000000       -1.074880         2
        14        16        21        34     9        0.000000        0.535456         3
        14        16        21        34     9      180.000000        0.022043         4
        14        20        19        18     9        0.000000        1.287113         1
        14        20        19        18     9      180.000000       -1.618282         2
        14        20        19        18     9        0.000000        0.191622         3
        14        20        19        18     9      180.000000        0.077554         4
        14        20        19        59     9        0.000000       -0.092904         1
        14        20        19        59     9      180.000000        0.066912         2
        14        20        19        59     9        0.000000        0.236401         3
        14        20        19        59     9      180.000000        0.021587         4
        14        20        19        60     9        0.000000       -0.092904         1
        14        20        19        60     9      180.000000        0.066912         2
        14        20        19        60     9        0.000000        0.236401         3
        14        20        19        60     9      180.000000        0.021587         4
        15        12        13        32     9        0.000000       -0.193798         1
        15        12        13        32     9      180.000000       10.708686         2
        15        12        13        32     9        0.000000        0.138099         3
        15        12        13        32     9      180.000000        0.381477         4
        16        14        13        32     9        0.000000        0.501235         1
        16        14        13        32     9      180.000000       -1.122739         2
        16        14        13        32     9        0.000000        0.605619         3
        16        14        13        32     9      180.000000        0.037427         4
        16        14        20        19     9        0.000000        2.710236         1
        16        14        20        19     9      180.000000       -1.635564         2
        16        14        20        19     9        0.000000        0.048934         3
        16        14        20        19     9      180.000000        0.053922         4
        16        14        20        61     9        0.000000       -0.095233         1
        16        14        20        61     9      180.000000        0.059773         2
        16        14        20        61     9        0.000000        0.179173         3
        16        14        20        61     9      180.000000        0.056545         4
        16        14        20        62     9        0.000000       -0.095233         1
        16        14        20        62     9      180.000000        0.059773         2
        16        14        20        62     9        0.000000        0.179173         3
        16        14        20        62     9      180.000000        0.056545         4
        16        17        18        19     9        0.000000        2.167701         1
        16        17        18        19     9      180.000000       -2.095071         2
        16        17        18        19     9        0.000000        0.100990         3
        16        17        18        19     9      180.000000       -0.067359         4
        16        17        18        51     9        0.000000       -0.969890         1
        16        17        18        51     9      180.000000       -0.492010         2
        16        17        18        51     9        0.000000        0.043330         3
        16        17        18        51     9      180.000000        0.044241         4
        16        17        18        58     9        0.000000       -0.731592         1
        16        17        18        58     9      180.000000        0.097424         2
        16        17        18        58     9        0.000000        0.165659         3
        16        17        18        58     9      180.000000        0.052140         4
        16        21        22        23     9        0.000000        1.551351         1
        16        21        22        23     9      180.000000       10.806241         2
        16        21        22        23     9        0.000000        0.659059         3
        16        21        22        23     9      180.000000       -0.282031         4
        16        21        22        24     9        0.000000       -0.687196         1
        16        21        22        24     9      180.000000       10.163927         2
        16        21        22        24     9        0.000000        0.483358         3
        16        21        22        24     9      180.000000       -1.334168         4
        17        16        14        20     9        0.000000        3.377915         1
        17        16        14        20     9      180.000000       -1.644845         2
        17        16        14        20     9        0.000000        0.090639         3
        17        16        14        20     9      180.000000       -0.008978         4
        17        16        14        33     9        0.000000       -0.366024         1
        17        16        14        33     9      180.000000        0.081295         2
        17        16        14        33     9        0.000000        0.302992         3
        17        16        14        33     9      180.000000        0.055566         4
        17        16        21        22     9        0.000000       -0.005175         1
        17        16        21        22     9      180.000000       -0.401672         2
        17        16        21        22     9        0.000000        0.370215         3
        17        16        21        22     9      180.000000        0.053218         4
        17        16        21        34     9        0.000000       -0.136586         1
        17        16        21        34     9      180.000000       -0.353037         2
        17        16        21        34     9        0.000000        0.351756         3
        17        16        21        34     9      180.000000       -0.038850         4
        17        18        19        20     9        0.000000        0.883010         1
        17        18        19        20     9      180.000000       -1.399872         2
        17        18        19        20     9        0.000000        0.314248         3
        17        18        19        20     9      180.000000       -0.050797         4
        17        18        19        59     9        0.000000       -0.056826         1
        17        18        19        59     9      180.000000        0.050149         2
        17        18        19        59     9        0.000000        0.270717         3
        17        18        19        59     9      180.000000        0.019384         4
        17        18        19        60     9        0.000000       -0.056826         1
        17        18        19        60     9      180.000000        0.050149         2
        17        18        19        60     9        0.000000        0.270717         3
        17        18        19        60     9      180.000000        0.019384         4
        17        18        51        52     9        0.000000       -0.455386         1
        17        18        51        52     9      180.000000        0.737900         2
        17        18        51        52     9        0.000000        0.287526         3
        17        18        51        52     9      180.000000        0.250951         4
        17        18        51        53     9        0.000000        0.270994         1
        17        18        51        53     9      180.000000        1.080078         2
        17        18        51        53     9        0.000000       -0.027563         3
        17        18        51        53     9      180.000000        0.001527         4
        18        17        16        21     9        0.000000       -0.378319         1
        18        17        16        21     9      180.000000        0.218820         2
        18        17        16        21     9        0.000000        0.056326         3
        18        17        16        21     9      180.000000        0.226509         4
        18        17        16        69     9        0.000000       -0.669048         1
        18        17        16        69     9      180.000000        0.139249         2
        18        17        16        69     9        0.000000        0.154171         3
        18        17        16        69     9      180.000000        0.076395         4
        18        19        20        61     9        0.000000       -0.080258         1
        18        19        20        61     9      180.000000        0.083233         2
        18        19        20        61     9        0.000000        0.213417         3
        18        19        20        61     9      180.000000        0.012387         4
        18        19        20        62     9        0.000000       -0.080258         1
        18        19        20        62     9      180.000000        0.083233         2
        18        19        20        62     9        0.000000        0.213417         3
        18        19        20        62     9      180.000000        0.012387         4
        18        51        53        54     9        0.000000        7.685850         1
        18        51        53        54     9      180.000000       10.413246         2
        18        51        53        54     9        0.000000        0.340038         3
        18        51        53        54     9      180.000000       -0.442447         4
        18        51        53        55     9        0.000000        7.685850         1
        18        51        53        55     9      180.000000       10.413246         2
        18        51        53        55     9        0.000000        0.340038         3
        18        51        53        55     9      180.000000       -0.442447         4
        19        18        17        56     9        0.000000       -0.052172         1
        19        18        17        56     9      180.000000        0.058083         2
        19        18        17        56     9        0.000000        0.229959         3
        19        18        17        56     9      180.000000        0.057798         4
        19        18        17        57     9        0.000000       -0.052172         1
        19        18        17        57     9      180.000000        0.058083         2
        19        18        17        57     9        0.000000        0.229959         3
        19        18        17        57     9      180.000000        0.057798         4
        19        18        51        52     9        0.000000       -0.698289         1
        19        18        51        52     9      180.000000        0.744054         2
        19        18        51        52     9        0.000000        0.336890         3
        19        18        51        52     9      180.000000        0.225666         4
        19        18        51        53     9        0.000000        0.291846         1
        19        18        51        53     9      180.000000        1.098654         2
        19        18        51        53     9        0.000000        0.042828         3
        19        18        51        53     9      180.000000       -0.012816         4
        19        20        14        33     9        0.000000       -0.430053         1
        19        20        14        33     9      180.000000        0.170607         2
        19        20        14        33     9        0.000000        0.243833         3
        19        20        14        33     9      180.000000        0.024422         4
        20        14        13        32     9        0.000000        0.033207         1
        20        14        13        32     9      180.000000       -0.071399         2
        20        14        13        32     9        0.000000        0.422075         3
        20        14        13        32     9      180.000000       -0.010493         4
        20        14        16        21     9        0.000000       -0.454566         1
        20        14        16        21     9      180.000000        0.242032         2
        20        14        16        21     9        0.000000        0.143071         3
        20        14        16        21     9      180.000000        0.208712         4
        20        14        16        69     9        0.000000       -0.391941         1
        20        14        16        69     9      180.000000        0.123120         2
        20        14        16        69     9        0.000000        0.322652         3
        20        14        16        69     9      180.000000        0.045492         4
        20        19        18        51     9        0.000000       -1.205837         1
        20        19        18        51     9      180.000000       -0.024594         2
        20        19        18        51     9        0.000000        0.127041         3
        20        19        18        51     9      180.000000        0.096010         4
        20        19        18        58     9        0.000000       -0.470892         1
        20        19        18        58     9      180.000000        0.118851         2
        20        19        18        58     9        0.000000        0.267874         3
        20        19        18        58     9      180.000000        0.031479         4
        21        16        14        33     9        0.000000       -0.386013         1
        21        16        14        33     9      180.000000        0.011541         2
        21        16        14        33     9        0.000000        0.353951         3
        21        16        14        33     9      180.000000       -0.009309         4
        21        16        17        56     9        0.000000        0.122902         1
        21        16        17        56     9      180.000000        0.128407         2
        21        16        17        56     9        0.000000        0.386720         3
        21        16        17        56     9      180.000000       -0.072984         4
        21        16        17        57     9        0.000000        0.122902         1
        21        16        17        57     9      180.000000        0.128407         2
        21        16        17        57     9        0.000000        0.386720         3
        21        16        17        57     9      180.000000       -0.072984         4
        21        22        23        25     9        0.000000        2.923749         1
        21        22        23        25     9      180.000000        2.022095         2
        21        22        23        25     9        0.000000        0.151149         3
        21        22        23        25     9      180.000000       -0.373995         4
        21        22        23        26     9        0.000000       -0.304414         1
        21        22        23        26     9      180.000000        3.200684         2
        21        22        23        26     9        0.000000        0.463910         3
        21        22        23        26     9      180.000000       -0.514292         4
        22        21        16        69     9        0.000000        0.020172         1
        22        21        16        69     9      180.000000        0.144925         2
        22        21        16        69     9        0.000000        0.214736         3
        22        21        16        69     9      180.000000        0.179789         4
        22        23        25        35     9        0.000000        0.509539         1
        22        23        25        35     9      180.000000       28.889665         2
        22        23        25        35     9        0.000000        0.564950         3
        22        23        25        35     9      180.000000       -0.961131         4
        22        23        26        36     9        0.000000       -1.127037         1
        22        23        26        36     9      180.000000       15.581777         2
        22        23        26        36     9        0.000000       -0.036420         3
        22        23        26        36     9      180.000000       -0.602861         4
        23        22        21        34     9        0.000000       -0.415752         1
        23        22        21        34     9      180.000000        9.010384         2
        23        22        21        34     9        0.000000        0.175298         3
        23        22        21        34     9      180.000000       -0.065606         4
        23        25        35        36     9        0.000000       -0.228535         1
        23        25        35        36     9      180.000000       27.756785         2
        23        25        35        36     9        0.000000       -2.863850         3
        23        25        35        36     9      180.000000       -0.158646         4
        23        25        35        40     9        0.000000        0.109642         1
        23        25        35        40     9      180.000000       22.524852         2
        23        25        35        40     9        0.000000        0.728535         3
        23        25        35        40     9      180.000000       -0.420500         4
        23        26        36        35     9        0.000000        0.019507         1
        23        26        36        35     9      180.000000       29.322726         2
        23        26        36        35     9        0.000000       -6.425576         3
        23        26        36        35     9      180.000000       -0.474428         4
        23        26        36        37     9        0.000000        0.448650         1
        23        26        36        37     9      180.000000       11.835073         2
        23        26        36        37     9        0.000000        0.424426         3
        23        26        36        37     9      180.000000       -0.134990         4
        24        22        21        34     9        0.000000       -0.005332         1
        24        22        21        34     9      180.000000       10.730372         2
        24        22        21        34     9        0.000000       -0.060300         3
        24        22        21        34     9      180.000000       -0.147584         4
        24        22        23        25     9        0.000000       -1.392140         1
        24        22        23        25     9      180.000000        3.582888         2
        24        22        23        25     9        0.000000        0.461599         3
        24        22        23        25     9      180.000000        0.214010         4
        24        22        23        26     9        0.000000        0.210149         1
        24        22        23        26     9      180.000000        4.370762         2
        24        22        23        26     9        0.000000       -0.343613         3
        24        22        23        26     9      180.000000        0.218765         4
        25        23        26        36     9        0.000000       -0.590193         1
        25        23        26        36     9      180.000000       31.322398         2
        25        23        26        36     9        0.000000       -5.851399         3
        25        23        26        36     9      180.000000       -0.585767         4
        25        35        36        26     9        0.000000       -0.800174         1
        25        35        36        26     9      180.000000       28.383673         2
        25        35        36        26     9        0.000000       -5.049933         3
        25        35        36        26     9      180.000000       -1.030530         4
        25        35        36        37     9        0.000000        0.006237         1
        25        35        36        37     9      180.000000       19.786124         2
        25        35        36        37     9        0.000000       -0.767005         3
        25        35        36        37     9      180.000000       -1.000863         4
        25        35        40        39     9        0.000000       -1.761287         1
        25        35        40        39     9      180.000000       -0.518566         2
        25        35        40        39     9        0.000000        0.250165         3
        25        35        40        39     9      180.000000        0.137553         4
        25        35        40        46     9        0.000000        0.061059         1
        25        35        40        46     9      180.000000        0.031081         2
        25        35        40        46     9        0.000000        0.254497         3
        25        35        40        46     9      180.000000       -0.033807         4
        25        35        40        47     9        0.000000        0.061059         1
        25        35        40        47     9      180.000000        0.031081         2
        25        35        40        47     9        0.000000        0.254497         3
        25        35        40        47     9      180.000000       -0.033807         4
        26        23        25        35     9        0.000000       -0.414856         1
        26        23        25        35     9      180.000000       36.017356         2
        26        23        25        35     9        0.000000       -4.165866         3
        26        23        25        35     9      180.000000        0.025250         4
        26        36        35        40     9        0.000000        0.102614         1
        26        36        35        40     9      180.000000       18.114968         2
        26        36        35        40     9        0.000000       -0.791874         3
        26        36        35        40     9      180.000000       -0.971119         4
        26        36        37        38     9        0.000000       -3.606837         1
        26        36        37        38     9      180.000000       -0.362514         2
        26        36        37        38     9        0.000000        0.387711         3
        26        36        37        38     9      180.000000        0.164191         4
        26        36        37        42     9        0.000000        0.050382         1
        26        36        37        42     9      180.000000        0.088073         2
        26        36        37        42     9        0.000000        0.411892         3
        26        36        37        42     9      180.000000       -0.037587         4
        26        36        37        43     9        0.000000        0.050382         1
        26        36        37        43     9      180.000000        0.088073         2
        26        36        37        43     9        0.000000        0.411892         3
        26        36        37        43     9      180.000000       -0.037587         4
        28         7         6        70     9        0.000000       -0.161417         1
        28         7         6        70     9      180.000000       12.838095         2
        28         7         6        70     9        0.000000       -0.567681         3
        28         7         6        70     9      180.000000        0.326494         4
        29         8         9        30     9        0.000000       -0.112595         1
        29         8         9        30     9      180.000000       12.610703         2
        29         8         9        30     9        0.000000       -0.685389         3
        29         8         9        30     9      180.000000        0.337851         4
        32        13        14        33     9        0.000000       -0.973626         1
        32        13        14        33     9      180.000000       -0.037775         2
        32        13        14        33     9        0.000000        0.607113         3
        32        13        14        33     9      180.000000        0.163938         4
        33        14        16        69     9        0.000000        0.153115         1
        33        14        16        69     9      180.000000       -0.171492         2
        33        14        16        69     9        0.000000        0.417295         3
        33        14        16        69     9      180.000000       -0.052650         4
        33        14        20        61     9        0.000000        0.035948         1
        33        14        20        61     9      180.000000        0.015899         2
        33        14        20        61     9        0.000000        0.371211         3
        33        14        20        61     9      180.000000        0.009098         4
        33        14        20        62     9        0.000000        0.035948         1
        33        14        20        62     9      180.000000        0.015899         2
        33        14        20        62     9        0.000000        0.371211         3
        33        14        20        62     9      180.000000        0.009098         4
        34        21        16        69     9        0.000000       -0.794086         1
        34        21        16        69     9      180.000000        0.147692         2
        34        21        16        69     9        0.000000        0.562941         3
        34        21        16        69     9      180.000000        0.176200         4
        35        36        37        38     9        0.000000       -3.311658         1
        35        36        37        38     9      180.000000        0.893056         2
        35        36        37        38     9        0.000000       -0.312861         3
        35        36        37        38     9      180.000000        0.089561         4
        35        36        37        42     9        0.000000       -0.010515         1
        35        36        37        42     9      180.000000       -0.166834         2
        35        36        37        42     9        0.000000       -0.357655         3
        35        36        37        42     9      180.000000       -0.002483         4
        35        36        37        43     9        0.000000       -0.010515         1
        35        36        37        43     9      180.000000       -0.166834         2
        35        36        37        43     9        0.000000       -0.357655         3
        35        36        37        43     9      180.000000       -0.002483         4
        35        40        39        38     9        0.000000       -1.384129         1
        35        40        39        38     9      180.000000       -0.653292         2
        35        40        39        38     9        0.000000        0.502380         3
        35        40        39        38     9      180.000000       -0.119672         4
        35        40        39        44     9        0.000000        0.056682         1
        35        40        39        44     9      180.000000        0.029063         2
        35        40        39        44     9        0.000000        0.464816         3
        35        40        39        44     9      180.000000        0.029460         4
        35        40        39        45     9        0.000000        0.056682         1
        35        40        39        45     9      180.000000        0.029063         2
        35        40        39        45     9        0.000000        0.464816         3
        35        40        39        45     9      180.000000        0.029460         4
        36        35        40        39     9        0.000000       -0.581697         1
        36        35        40        39     9      180.000000       -0.178850         2
        36        35        40        39     9        0.000000       -0.539812         3
        36        35        40        39     9      180.000000        0.228285         4
        36        35        40        46     9        0.000000        0.001137         1
        36        35        40        46     9      180.000000       -0.132140         2
        36        35        40        46     9        0.000000       -0.440824         3
        36        35        40        46     9      180.000000        0.030108         4
        36        35        40        47     9        0.000000        0.001137         1
        36        35        40        47     9      180.000000       -0.132140         2
        36        35        40        47     9        0.000000       -0.440824         3
        36        35        40        47     9      180.000000        0.030108         4
        36        37        38        39     9        0.000000        1.757084         1
        36        37        38        39     9      180.000000       -1.262017         2
        36        37        38        39     9        0.000000        0.610032         3
        36        37        38        39     9      180.000000       -0.013762         4
        36        37        38        41     9        0.000000        0.088848         1
        36        37        38        41     9      180.000000        0.098174         2
        36        37        38        41     9        0.000000        0.957104         3
        36        37        38        41     9      180.000000        0.111039         4
        37        36        35        40     9        0.000000        0.173945         1
        37        36        35        40     9      180.000000       16.682661         2
        37        36        35        40     9        0.000000       -0.531422         3
        37        36        35        40     9      180.000000       -0.483502         4
        37        38        39        40     9        0.000000        2.929372         1
        37        38        39        40     9      180.000000       -2.275396         2
        37        38        39        40     9        0.000000        0.136332         3
        37        38        39        40     9      180.000000        0.386228         4
        37        38        39        44     9        0.000000       -0.123649         1
        37        38        39        44     9      180.000000        0.088231         2
        37        38        39        44     9        0.000000        0.293555         3
        37        38        39        44     9      180.000000        0.009401         4
        37        38        39        45     9        0.000000       -0.123649         1
        37        38        39        45     9      180.000000        0.088231         2
        37        38        39        45     9        0.000000        0.293555         3
        37        38        39        45     9      180.000000        0.009401         4
        37        38        41        48     9        0.000000       -0.036256         1
        37        38        41        48     9      180.000000        0.018735         2
        37        38        41        48     9        0.000000        1.024067         3
        37        38        41        48     9      180.000000        0.001601         4
        37        38        41        49     9        0.000000       -0.036256         1
        37        38        41        49     9      180.000000        0.018735         2
        37        38        41        49     9        0.000000        1.024067         3
        37        38        41        49     9      180.000000        0.001601         4
        37        38        41        50     9        0.000000       -0.036256         1
        37        38        41        50     9      180.000000        0.018735         2
        37        38        41        50     9        0.000000        1.024067         3
        37        38        41        50     9      180.000000        0.001601         4
        38        39        40        46     9        0.000000       -0.054085         1
        38        39        40        46     9      180.000000        0.034526         2
        38        39        40        46     9        0.000000        0.373195         3
        38        39        40        46     9      180.000000        0.083514         4
        38        39        40        47     9        0.000000       -0.054085         1
        38        39        40        47     9      180.000000        0.034526         2
        38        39        40        47     9        0.000000        0.373195         3
        38        39        40        47     9      180.000000        0.083514         4
        39        38        37        42     9        0.000000       -0.029691         1
        39        38        37        42     9      180.000000        0.036400         2
        39        38        37        42     9        0.000000        0.631979         3
        39        38        37        42     9      180.000000        0.071457         4
        39        38        37        43     9        0.000000       -0.029691         1
        39        38        37        43     9      180.000000        0.036400         2
        39        38        37        43     9        0.000000        0.631979         3
        39        38        37        43     9      180.000000        0.071457         4
        39        38        41        48     9        0.000000       -0.014100         1
        39        38        41        48     9      180.000000        0.015343         2
        39        38        41        48     9        0.000000        0.884158         3
        39        38        41        48     9      180.000000        0.019132         4
        39        38        41        49     9        0.000000       -0.014100         1
        39        38        41        49     9      180.000000        0.015343         2
        39        38        41        49     9        0.000000        0.884158         3
        39        38        41        49     9      180.000000        0.019132         4
        39        38        41        50     9        0.000000       -0.014100         1
        39        38        41        50     9      180.000000        0.015343         2
        39        38        41        50     9        0.000000        0.884158         3
        39        38        41        50     9      180.000000        0.019132         4
        40        39        38        41     9        0.000000        1.698500         1
        40        39        38        41     9      180.000000       -0.487751         2
        40        39        38        41     9        0.000000        0.450767         3
        40        39        38        41     9      180.000000        0.246699         4
        41        38        37        42     9        0.000000        0.111988         1
        41        38        37        42     9      180.000000        0.004567         2
        41        38        37        42     9        0.000000        0.981665         3
        41        38        37        42     9      180.000000       -0.069874         4
        41        38        37        43     9        0.000000        0.111988         1
        41        38        37        43     9      180.000000        0.004567         2
        41        38        37        43     9        0.000000        0.981665         3
        41        38        37        43     9      180.000000       -0.069874         4
        41        38        39        44     9        0.000000       -0.115413         1
        41        38        39        44     9      180.000000       -0.101300         2
        41        38        39        44     9        0.000000        0.611434         3
        41        38        39        44     9      180.000000       -0.123227         4
        41        38        39        45     9        0.000000       -0.115413         1
        41        38        39        45     9      180.000000       -0.101300         2
        41        38        39        45     9        0.000000        0.611434         3
        41        38        39        45     9      180.000000       -0.123227         4
        44        39        40        46     9        0.000000       -0.014895         1
        44        39        40        46     9      180.000000       -0.022227         2
        44        39        40        46     9        0.000000        0.401862         3
        44        39        40        46     9      180.000000       -0.001746         4
        44        39        40        47     9        0.000000       -0.014895         1
        44        39        40        47     9      180.000000       -0.022227         2
        44        39        40        47     9        0.000000        0.401862         3
        44        39        40        47     9      180.000000       -0.001746         4
        45        39        40        46     9        0.000000       -0.014895         1
        45        39        40        46     9      180.000000       -0.022227         2
        45        39        40        46     9        0.000000        0.401862         3
        45        39        40        46     9      180.000000       -0.001746         4
        45        39        40        47     9        0.000000       -0.014895         1
        45        39        40        47     9      180.000000       -0.022227         2
        45        39        40        47     9        0.000000        0.401862         3
        45        39        40        47     9      180.000000       -0.001746         4
        51        18        17        56     9        0.000000        0.178565         1
        51        18        17        56     9      180.000000        0.124017         2
        51        18        17        56     9        0.000000        0.213224         3
        51        18        17        56     9      180.000000       -0.042705         4
        51        18        17        57     9        0.000000        0.178565         1
        51        18        17        57     9      180.000000        0.124017         2
        51        18        17        57     9        0.000000        0.213224         3
        51        18        17        57     9      180.000000       -0.042705         4
        51        18        19        59     9        0.000000        0.159078         1
        51        18        19        59     9      180.000000        0.098531         2
        51        18        19        59     9        0.000000        0.249228         3
        51        18        19        59     9      180.000000       -0.047820         4
        51        18        19        60     9        0.000000        0.159078         1
        51        18        19        60     9      180.000000        0.098531         2
        51        18        19        60     9        0.000000        0.249228         3
        51        18        19        60     9      180.000000       -0.047820         4
        51        53        54        63     9        0.000000       -0.008626         1
        51        53        54        63     9      180.000000        0.038862         2
        51        53        54        63     9        0.000000        0.235749         3
        51        53        54        63     9      180.000000        0.020475         4
        51        53        54        64     9        0.000000       -0.008626         1
        51        53        54        64     9      180.000000        0.038862         2
        51        53        54        64     9        0.000000        0.235749         3
        51        53        54        64     9      180.000000        0.020475         4
        51        53        54        65     9        0.000000       -0.008626         1
        51        53        54        65     9      180.000000        0.038862         2
        51        53        54        65     9        0.000000        0.235749         3
        51        53        54        65     9      180.000000        0.020475         4
        51        53        55        66     9        0.000000       -0.008626         1
        51        53        55        66     9      180.000000        0.038862         2
        51        53        55        66     9        0.000000        0.235749         3
        51        53        55        66     9      180.000000        0.020475         4
        51        53        55        67     9        0.000000       -0.008626         1
        51        53        55        67     9      180.000000        0.038862         2
        51        53        55        67     9        0.000000        0.235749         3
        51        53        55        67     9      180.000000        0.020475         4
        51        53        55        68     9        0.000000       -0.008626         1
        51        53        55        68     9      180.000000        0.038862         2
        51        53        55        68     9        0.000000        0.235749         3
        51        53        55        68     9      180.000000        0.020475         4
        52        51        18        58     9        0.000000        1.593583         1
        52        51        18        58     9      180.000000        0.703025         2
        52        51        18        58     9        0.000000        0.717740         3
        52        51        18        58     9      180.000000       -0.500486         4
        52        51        53        54     9        0.000000       -0.375518         1
        52        51        53        54     9      180.000000       13.044421         2
        52        51        53        54     9        0.000000       -1.547115         3
        52        51        53        54     9      180.000000       -0.087257         4
        52        51        53        55     9        0.000000       -0.375518         1
        52        51        53        55     9      180.000000       13.044421         2
        52        51        53        55     9        0.000000       -1.547115         3
        52        51        53        55     9      180.000000       -0.087257         4
        53        51        18        58     9        0.000000       -0.215324         1
        53        51        18        58     9      180.000000        0.004504         2
        53        51        18        58     9        0.000000       -0.151551         3
        53        51        18        58     9      180.000000       -0.047823         4
        54        53        55        66     9        0.000000       -0.024574         1
        54        53        55        66     9      180.000000        0.053683         2
        54        53        55        66     9        0.000000        1.208154         3
        54        53        55        66     9      180.000000        0.010416         4
        54        53        55        67     9        0.000000       -0.024574         1
        54        53        55        67     9      180.000000        0.053683         2
        54        53        55        67     9        0.000000        1.208154         3
        54        53        55        67     9      180.000000        0.010416         4
        54        53        55        68     9        0.000000       -0.024574         1
        54        53        55        68     9      180.000000        0.053683         2
        54        53        55        68     9        0.000000        1.208154         3
        54        53        55        68     9      180.000000        0.010416         4
        55        53        54        63     9        0.000000       -0.024574         1
        55        53        54        63     9      180.000000        0.053683         2
        55        53        54        63     9        0.000000        1.208154         3
        55        53        54        63     9      180.000000        0.010416         4
        55        53        54        64     9        0.000000       -0.024574         1
        55        53        54        64     9      180.000000        0.053683         2
        55        53        54        64     9        0.000000        1.208154         3
        55        53        54        64     9      180.000000        0.010416         4
        55        53        54        65     9        0.000000       -0.024574         1
        55        53        54        65     9      180.000000        0.053683         2
        55        53        54        65     9        0.000000        1.208154         3
        55        53        54        65     9      180.000000        0.010416         4
        56        17        16        69     9        0.000000        0.032620         1
        56        17        16        69     9      180.000000        0.014450         2
        56        17        16        69     9        0.000000        0.397221         3
        56        17        16        69     9      180.000000        0.013351         4
        56        17        18        58     9        0.000000        0.092902         1
        56        17        18        58     9      180.000000        0.093401         2
        56        17        18        58     9        0.000000        0.416253         3
        56        17        18        58     9      180.000000       -0.035407         4
        57        17        16        69     9        0.000000        0.032620         1
        57        17        16        69     9      180.000000        0.014450         2
        57        17        16        69     9        0.000000        0.397221         3
        57        17        16        69     9      180.000000        0.013351         4
        57        17        18        58     9        0.000000        0.092902         1
        57        17        18        58     9      180.000000        0.093401         2
        57        17        18        58     9        0.000000        0.416253         3
        57        17        18        58     9      180.000000       -0.035407         4
        58        18        19        59     9        0.000000        0.089169         1
        58        18        19        59     9      180.000000        0.058938         2
        58        18        19        59     9        0.000000        0.395713         3
        58        18        19        59     9      180.000000       -0.024133         4
        58        18        19        60     9        0.000000        0.089169         1
        58        18        19        60     9      180.000000        0.058938         2
        58        18        19        60     9        0.000000        0.395713         3
        58        18        19        60     9      180.000000       -0.024133         4
        59        19        20        61     9        0.000000        0.013546         1
        59        19        20        61     9      180.000000        0.010717         2
        59        19        20        61     9        0.000000        0.296412         3
        59        19        20        61     9      180.000000        0.043706         4
        59        19        20        62     9        0.000000        0.013546         1
        59        19        20        62     9      180.000000        0.010717         2
        59        19        20        62     9        0.000000        0.296412         3
        59        19        20        62     9      180.000000        0.043706         4
        60        19        20        61     9        0.000000        0.013546         1
        60        19        20        61     9      180.000000        0.010717         2
        60        19        20        61     9        0.000000        0.296412         3
        60        19        20        61     9      180.000000        0.043706         4
        60        19        20        62     9        0.000000        0.013546         1
        60        19        20        62     9      180.000000        0.010717         2
        60        19        20        62     9        0.000000        0.296412         3
        60        19        20        62     9      180.000000        0.043706         4

[ dihedrals ] ; impropers
;       ai        aj        ak        al funct           phase               k        pn
        12         5        13        15     4      180.000000       26.580040         2
        12        13        15         5     4      180.000000       26.580040         2
        12        15         5        13     4      180.000000       26.580040         2
        22        21        23        24     4      180.000000       14.088156         2
        22        23        24        21     4      180.000000       14.088156         2
        22        24        21        23     4      180.000000       14.088156         2
        51        18        52        53     4      180.000000       15.867168         2
        51        52        53        18     4      180.000000       15.867168         2
        51        53        18        52     4      180.000000       15.867168         2

[ pairs ]
;       ai        aj funct
         1         2     1
         1         5     1
         1         9     1
         1        27     1
         1        29     1
         1        70     1
         2         8     1
         2        30     1
         2        31     1
         3         6     1
         3        10     1
         3        12     1
         3        28     1
         3        30     1
         3        31     1
         4         7     1
         4         9     1
         4        11     1
         4        13     1
         4        15     1
         4        29     1
         4        70     1
         5         8     1
         5        14     1
         5        28     1
         5        32     1
         6        11     1
         6        13     1
         6        15     1
         6        27     1
         7         8     1
         7        10     1
         7        12     1
         7        31     1
         8        11     1
         8        27     1
         9        31     1
        10        29     1
        11        28     1
        11        30     1
        12        16     1
        12        20     1
        12        27     1
        12        33     1
        12        70     1
        13        17     1
        13        19     1
        13        21     1
        13        61     1
        13        62     1
        13        69     1
        14        15     1
        14        18     1
        14        22     1
        14        34     1
        14        56     1
        14        57     1
        14        59     1
        14        60     1
        15        32     1
        16        19     1
        16        23     1
        16        24     1
        16        32     1
        16        51     1
        16        58     1
        16        61     1
        16        62     1
        17        20     1
        17        22     1
        17        33     1
        17        34     1
        17        52     1
        17        53     1
        17        59     1
        17        60     1
        18        21     1
        18        54     1
        18        55     1
        18        61     1
        18        62     1
        18        69     1
        19        33     1
        19        52     1
        19        53     1
        19        56     1
        19        57     1
        20        21     1
        20        32     1
        20        51     1
        20        58     1
        20        69     1
        21        25     1
        21        26     1
        21        33     1
        21        56     1
        21        57     1
        22        35     1
        22        36     1
        22        69     1
        23        34     1
        23        37     1
        23        40     1
        24        25     1
        24        26     1
        24        34     1
        25        37     1
        25        39     1
        25        46     1
        25        47     1
        26        38     1
        26        40     1
        26        42     1
        26        43     1
        28        70     1
        29        30     1
        32        33     1
        33        61     1
        33        62     1
        33        69     1
        34        69     1
        35        38     1
        35        42     1
        35        43     1
        35        44     1
        35        45     1
        36        39     1
        36        41     1
        36        46     1
        36        47     1
        37        40     1
        37        44     1
        37        45     1
        37        48     1
        37        49     1
        37        50     1
        38        46     1
        38        47     1
        39        42     1
        39        43     1
        39        48     1
        39        49     1
        39        50     1
        40        41     1
        41        42     1
        41        43     1
        41        44     1
        41        45     1
        44        46     1
        44        47     1
        45        46     1
        45        47     1
        51        56     1
        51        57     1
        51        59     1
        51        60     1
        51        63     1
        51        64     1
        51        65     1
        51        66     1
        51        67     1
        51        68     1
        52        54     1
        52        55     1
        52        58     1
        53        58     1
        54        66     1
        54        67     1
        54        68     1
        55        63     1
        55        64     1
        55        65     1
        56        58     1
        56        69     1
        57        58     1
        57        69     1
        58        59     1
        58        60     1
        59        61     1
        59        62     1
        60        61     1
        60        62     1
