; ITP file created by ByteFF-ML, 2025-12-06 08:07:13.044897

[ atomtypes ]
;name           bonded.type        at.num        mass        charge   ptype           sigma         epsilon
 c0bf                                   6      0.0000       0.00000       A     3.31405e-01     4.12076e-01
 cl1bf                                 17      0.0000       0.00000       A     3.46707e-01     1.10492e+00
 c2bf                                   6      0.0000       0.00000       A     3.31381e-01     4.13133e-01
 n3bf                                   7      0.0000       0.00000       A     3.38417e-01     3.93557e-01
 c4bf                                   6      0.0000       0.00000       A     3.31605e-01     4.12001e-01
 c5bf                                   6      0.0000       0.00000       A     3.31389e-01     4.13880e-01
 c6bf                                   6      0.0000       0.00000       A     3.31558e-01     4.13518e-01
 c7bf                                   6      0.0000       0.00000       A     3.31521e-01     4.13973e-01
 c8bf                                   6      0.0000       0.00000       A     3.31506e-01     4.12495e-01
 c9bf                                   6      0.0000       0.00000       A     3.31551e-01     4.12247e-01
 c10bf                                  6      0.0000       0.00000       A     3.31512e-01     4.13824e-01
 c11bf                                  6      0.0000       0.00000       A     3.31395e-01     4.12121e-01
 n12bf                                  7      0.0000       0.00000       A     3.26391e-01     4.89479e-01
 c13bf                                  6      0.0000       0.00000       A     3.39882e-01     4.48406e-01
 o14bf                                  8      0.0000       0.00000       A     3.04625e-01     6.10275e-01
 c15bf                                  6      0.0000       0.00000       A     3.39970e-01     4.49282e-01
 c16bf                                  6      0.0000       0.00000       A     3.39695e-01     4.50020e-01
 c17bf                                  6      0.0000       0.00000       A     3.39807e-01     4.51065e-01
 c18bf                                  6      0.0000       0.00000       A     3.39783e-01     4.50599e-01
 c19bf                                  6      0.0000       0.00000       A     3.39773e-01     4.51249e-01
 n20bf                                  7      0.0000       0.00000       A     3.26602e-01     4.88281e-01
 c21bf                                  6      0.0000       0.00000       A     3.31258e-01     4.13621e-01
 c22bf                                  6      0.0000       0.00000       A     3.31371e-01     4.12927e-01
 o23bf                                  8      0.0000       0.00000       A     3.04582e-01     6.10219e-01
 n24bf                                  7      0.0000       0.00000       A     3.38377e-01     3.93517e-01
 s25bf                                 16      0.0000       0.00000       A     3.53468e-01     1.17897e+00
 h26bf                                  1      0.0000       0.00000       A     2.62574e-01     6.72552e-02
 h27bf                                  1      0.0000       0.00000       A     2.62498e-01     6.69120e-02
 h28bf                                  1      0.0000       0.00000       A     2.62498e-01     6.74371e-02
 h29bf                                  1      0.0000       0.00000       A     2.62408e-01     6.74547e-02
 h30bf                                  1      0.0000       0.00000       A     1.10453e-01     4.01555e-02
 h31bf                                  1      0.0000       0.00000       A     2.42179e-01     8.63601e-02
 h32bf                                  1      0.0000       0.00000       A     1.10612e-01     4.02241e-02
 c33bf                                  6      0.0000       0.00000       A     3.31347e-01     4.13267e-01
 c34bf                                  6      0.0000       0.00000       A     3.31421e-01     4.13824e-01
 c35bf                                  6      0.0000       0.00000       A     3.39969e-01     4.50893e-01
 n36bf                                  7      0.0000       0.00000       A     3.36930e-01     3.57427e-01
 c37bf                                  6      0.0000       0.00000       A     3.39827e-01     4.51767e-01
 c38bf                                  6      0.0000       0.00000       A     3.39882e-01     4.51317e-01
 c39bf                                  6      0.0000       0.00000       A     3.39758e-01     4.50040e-01
 h40bf                                  1      0.0000       0.00000       A     2.42170e-01     8.71342e-02
 h41bf                                  1      0.0000       0.00000       A     2.42170e-01     8.71342e-02
 h42bf                                  1      0.0000       0.00000       A     2.42257e-01     8.79530e-02
 h43bf                                  1      0.0000       0.00000       A     2.42257e-01     8.79530e-02
 h44bf                                  1      0.0000       0.00000       A     2.59883e-01     8.84270e-02
 h45bf                                  1      0.0000       0.00000       A     2.59883e-01     8.84270e-02
 h46bf                                  1      0.0000       0.00000       A     2.41989e-01     8.72555e-02
 h47bf                                  1      0.0000       0.00000       A     2.41989e-01     8.72555e-02
 h48bf                                  1      0.0000       0.00000       A     2.41989e-01     8.72555e-02
 c49bf                                  6      0.0000       0.00000       A     3.31656e-01     4.11194e-01
 o50bf                                  8      0.0000       0.00000       A     3.04848e-01     6.12895e-01
 n51bf                                  7      0.0000       0.00000       A     3.18436e-01     6.83644e-01
 c52bf                                  6      0.0000       0.00000       A     3.39787e-01     4.50128e-01
 c53bf                                  6      0.0000       0.00000       A     3.39787e-01     4.50128e-01
 h54bf                                  1      0.0000       0.00000       A     2.59758e-01     8.65469e-02
 h55bf                                  1      0.0000       0.00000       A     2.59758e-01     8.65469e-02
 h56bf                                  1      0.0000       0.00000       A     2.59710e-01     8.69571e-02
 h57bf                                  1      0.0000       0.00000       A     2.59950e-01     8.71566e-02
 h58bf                                  1      0.0000       0.00000       A     2.59950e-01     8.71566e-02
 h59bf                                  1      0.0000       0.00000       A     2.59873e-01     8.66777e-02
 h60bf                                  1      0.0000       0.00000       A     2.59873e-01     8.66777e-02
 h61bf                                  1      0.0000       0.00000       A     2.42033e-01     8.76162e-02
 h62bf                                  1      0.0000       0.00000       A     2.42033e-01     8.76162e-02
 h63bf                                  1      0.0000       0.00000       A     2.42033e-01     8.76162e-02
 h64bf                                  1      0.0000       0.00000       A     2.42033e-01     8.76162e-02
 h65bf                                  1      0.0000       0.00000       A     2.42033e-01     8.76162e-02
 h66bf                                  1      0.0000       0.00000       A     2.42033e-01     8.76162e-02
 h67bf                                  1      0.0000       0.00000       A     2.42061e-01     8.64671e-02
 h68bf                                  1      0.0000       0.00000       A     2.62196e-01     6.65098e-02

[ moleculetype ]
;name             nrexcl
 5b                    3

[ atoms ]
;       nr            type      resi   res      atom      cgnr      charge          mass ; qtot
         1            c0bf         1   UNL        c0         1    -0.05786       12.0110 ; qtot   -0.058
         2           cl1bf         1   UNL       cl1         2    -0.20533       35.4530 ; qtot   -0.263
         3            c2bf         1   UNL        c2         3     0.26236       12.0110 ; qtot   -0.001
         4            n3bf         1   UNL        n3         4    -0.65513       14.0070 ; qtot   -0.656
         5            c4bf         1   UNL        c4         5     0.30865       12.0110 ; qtot   -0.347
         6            c5bf         1   UNL        c5         6    -0.12056       12.0110 ; qtot   -0.468
         7            c6bf         1   UNL        c6         7    -0.06766       12.0110 ; qtot   -0.536
         8            c7bf         1   UNL        c7         8    -0.06567       12.0110 ; qtot   -0.601
         9            c8bf         1   UNL        c8         9    -0.09018       12.0110 ; qtot   -0.691
        10            c9bf         1   UNL        c9        10     0.11850       12.0110 ; qtot   -0.573
        11           c10bf         1   UNL       c10        11    -0.07876       12.0110 ; qtot   -0.652
        12           c11bf         1   UNL       c11        12     0.51078       12.0110 ; qtot   -0.141
        13           n12bf         1   UNL       n12        13    -0.48583       14.0070 ; qtot   -0.627
        14           c13bf         1   UNL       c13        14     0.09643       12.0110 ; qtot   -0.530
        15           o14bf         1   UNL       o14        15    -0.60335       15.9990 ; qtot   -1.134
        16           c15bf         1   UNL       c15        16     0.09853       12.0110 ; qtot   -1.035
        17           c16bf         1   UNL       c16        17    -0.07593       12.0110 ; qtot   -1.111
        18           c17bf         1   UNL       c17        18    -0.13491       12.0110 ; qtot   -1.246
        19           c18bf         1   UNL       c18        19    -0.06728       12.0110 ; qtot   -1.313
        20           c19bf         1   UNL       c19        20    -0.08744       12.0110 ; qtot   -1.401
        21           n20bf         1   UNL       n20        21    -0.49001       14.0070 ; qtot   -1.891
        22           c21bf         1   UNL       c21        22     0.53549       12.0110 ; qtot   -1.355
        23           c22bf         1   UNL       c22        23     0.38153       12.0110 ; qtot   -0.974
        24           o23bf         1   UNL       o23        24    -0.58023       15.9990 ; qtot   -1.554
        25           n24bf         1   UNL       n24        25    -0.61219       14.0070 ; qtot   -2.166
        26           s25bf         1   UNL       s25        26     0.02030       32.0670 ; qtot   -2.146
        27           h26bf         1   UNL       h26        27     0.12713        1.0080 ; qtot   -2.019
        28           h27bf         1   UNL       h27        28     0.13979        1.0080 ; qtot   -1.879
        29           h28bf         1   UNL       h28        29     0.13570        1.0080 ; qtot   -1.743
        30           h29bf         1   UNL       h29        30     0.13500        1.0080 ; qtot   -1.608
        31           h30bf         1   UNL       h30        31     0.34684        1.0080 ; qtot   -1.261
        32           h31bf         1   UNL       h31        32     0.07740        1.0080 ; qtot   -1.184
        33           h32bf         1   UNL       h32        33     0.34007        1.0080 ; qtot   -0.844
        34           c33bf         1   UNL       c33        34     0.28744       12.0110 ; qtot   -0.556
        35           c34bf         1   UNL       c34        35    -0.23576       12.0110 ; qtot   -0.792
        36           c35bf         1   UNL       c35        36     0.24225       12.0110 ; qtot   -0.550
        37           n36bf         1   UNL       n36        37    -0.71279       14.0070 ; qtot   -1.263
        38           c37bf         1   UNL       c37        38     0.15975       12.0110 ; qtot   -1.103
        39           c38bf         1   UNL       c38        39    -0.11333       12.0110 ; qtot   -1.216
        40           c39bf         1   UNL       c39        40     0.14641       12.0110 ; qtot   -1.070
        41           h40bf         1   UNL       h40        41     0.05577        1.0080 ; qtot   -1.014
        42           h41bf         1   UNL       h41        42     0.05577        1.0080 ; qtot   -0.958
        43           h42bf         1   UNL       h42        43     0.04433        1.0080 ; qtot   -0.914
        44           h43bf         1   UNL       h43        44     0.04433        1.0080 ; qtot   -0.870
        45           h44bf         1   UNL       h44        45     0.06561        1.0080 ; qtot   -0.804
        46           h45bf         1   UNL       h45        46     0.06561        1.0080 ; qtot   -0.738
        47           h46bf         1   UNL       h46        47     0.03413        1.0080 ; qtot   -0.704
        48           h47bf         1   UNL       h47        48     0.03413        1.0080 ; qtot   -0.670
        49           h48bf         1   UNL       h48        49     0.03413        1.0080 ; qtot   -0.636
        50           c49bf         1   UNL       c49        50     0.60518       12.0110 ; qtot   -0.031
        51           o50bf         1   UNL       o50        51    -0.60574       15.9990 ; qtot   -0.637
        52           n51bf         1   UNL       n51        52    -0.42066       14.0070 ; qtot   -1.057
        53           c52bf         1   UNL       c52        53     0.08301       12.0110 ; qtot   -0.974
        54           c53bf         1   UNL       c53        54     0.08301       12.0110 ; qtot   -0.891
        55           h54bf         1   UNL       h54        55     0.06130        1.0080 ; qtot   -0.830
        56           h55bf         1   UNL       h55        56     0.06130        1.0080 ; qtot   -0.769
        57           h56bf         1   UNL       h56        57     0.06316        1.0080 ; qtot   -0.705
        58           h57bf         1   UNL       h57        58     0.05027        1.0080 ; qtot   -0.655
        59           h58bf         1   UNL       h58        59     0.05027        1.0080 ; qtot   -0.605
        60           h59bf         1   UNL       h59        60     0.05517        1.0080 ; qtot   -0.550
        61           h60bf         1   UNL       h60        61     0.05517        1.0080 ; qtot   -0.495
        62           h61bf         1   UNL       h61        62     0.04477        1.0080 ; qtot   -0.450
        63           h62bf         1   UNL       h62        63     0.04477        1.0080 ; qtot   -0.405
        64           h63bf         1   UNL       h63        64     0.04477        1.0080 ; qtot   -0.360
        65           h64bf         1   UNL       h64        65     0.04477        1.0080 ; qtot   -0.316
        66           h65bf         1   UNL       h65        66     0.04477        1.0080 ; qtot   -0.271
        67           h66bf         1   UNL       h66        67     0.04477        1.0080 ; qtot   -0.226
        68           h67bf         1   UNL       h67        68     0.07796        1.0080 ; qtot   -0.148
        69           h68bf         1   UNL       h68        69     0.14802        1.0080 ; qtot    0.000

[ bonds ]
;       ai        aj funct               r               k
         1         3     1        0.143142   238302.345215
         1         7     1        0.142052   279906.101416
         1        11     1        0.141878   279852.907617
         2        10     1        0.175669   149486.423926
         3         4     1        0.136071   278115.924512
         3         8     1        0.142106   277798.932373
         4         5     1        0.132202   357668.514746
         5         6     1        0.142027   248024.527051
         5        12     1        0.151598   166058.488452
         6         7     1        0.137580   368494.614746
         6        69     1        0.108398   326252.226514
         7        27     1        0.108675   318686.168359
         8         9     1        0.137954   355263.021191
         8        28     1        0.108510   324190.283691
         9        10     1        0.141656   266818.664844
         9        29     1        0.108469   325115.084570
        10        11     1        0.137747   344789.588672
        11        30     1        0.108524   322417.676318
        12        13     1        0.135819   318655.217383
        12        15     1        0.123547   585060.487500
        13        14     1        0.146116   192611.438501
        13        31     1        0.101534   407992.300000
        14        16     1        0.154771   156432.658130
        14        20     1        0.153894   172874.585547
        14        32     1        0.109299   301876.417187
        16        17     1        0.153890   171755.268506
        16        21     1        0.146250   191046.869189
        16        68     1        0.109290   301765.586133
        17        18     1        0.154579   164893.255688
        17        55     1        0.109326   300596.548340
        17        56     1        0.109326   300596.548340
        18        19     1        0.154661   163666.440186
        18        50     1        0.153191   158389.847729
        18        57     1        0.109414   302100.760693
        19        20     1        0.153693   181138.049390
        19        58     1        0.109447   297470.142188
        19        59     1        0.109447   297470.142188
        20        60     1        0.109408   298814.185791
        20        61     1        0.109408   298814.185791
        21        22     1        0.136095   315450.182471
        21        33     1        0.101409   412617.504639
        22        23     1        0.149761   181928.244165
        22        24     1        0.123205   595504.348047
        23        25     1        0.130744   394780.497705
        23        26     1        0.175753   114860.619019
        25        34     1        0.137483   250388.573877
        26        35     1        0.173418   163411.796899
        34        35     1        0.137232   358668.241504
        34        39     1        0.150284   209899.921094
        35        36     1        0.150545   205958.217187
        36        37     1        0.146468   191918.016602
        36        41     1        0.110015   279945.249805
        36        42     1        0.110015   279945.249805
        37        38     1        0.146781   189560.941406
        37        40     1        0.146077   206296.839258
        38        39     1        0.153813   178870.826514
        38        43     1        0.109814   285833.034668
        38        44     1        0.109814   285833.034668
        39        45     1        0.109539   296322.146973
        39        46     1        0.109539   296322.146973
        40        47     1        0.109765   288786.094922
        40        48     1        0.109765   288786.094922
        40        49     1        0.109765   288786.094922
        50        51     1        0.123512   586720.450684
        50        52     1        0.137606   276714.984229
        52        53     1        0.145947   208517.482446
        52        54     1        0.145947   208517.482446
        53        62     1        0.109324   300806.693213
        53        63     1        0.109324   300806.693213
        53        64     1        0.109324   300806.693213
        54        65     1        0.109324   300806.693213
        54        66     1        0.109324   300806.693213
        54        67     1        0.109324   300806.693213

[ angles ]
;       ai        aj        ak funct           theta             cth
         1         3         4     1      122.276840      745.555653
         1         3         8     1      118.872536      657.538302
         1         7         6     1      119.364456      630.798714
         1         7        27     1      119.612808      439.728658
         1        11        10     1      119.357201      510.027404
         1        11        30     1      120.092628      429.077480
         2        10         9     1      118.488991      402.088842
         2        10        11     1      119.932022      332.108831
         3         1         7     1      117.399460      675.523769
         3         1        11     1      119.611633      742.810477
         3         4         5     1      118.484940      454.162168
         3         8         9     1      120.699570      558.652486
         3         8        28     1      118.012039      447.873655
         4         3         8     1      118.670212      432.351529
         4         5         6     1      123.614014      667.210674
         4         5        12     1      117.531395      438.823048
         5         6         7     1      118.762329      742.017678
         5         6        69     1      118.745995      407.186560
         5        12        13     1      113.950760      484.664298
         5        12        15     1      121.278259      641.283166
         6         5        12     1      118.658371      545.327797
         6         7        27     1      120.962746      441.766359
         7         1        11     1      122.968140      404.291960
         7         6        69     1      122.455711      403.702436
         8         9        10     1      119.479630      632.761688
         8         9        29     1      121.008568      427.395766
         9         8        28     1      121.103958      425.599230
         9        10        11     1      121.592247      626.632654
        10         9        29     1      119.561424      441.419757
        10        11        30     1      120.500351      430.714441
        12        13        14     1      123.435059      524.990522
        12        13        31     1      115.921310      437.208400
        13        12        15     1      124.601585      611.821195
        13        14        16     1      111.197342      546.678327
        13        14        20     1      111.640915      630.543599
        13        14        32     1      106.308006      528.026916
        14        13        31     1      119.024841      373.904715
        14        16        17     1      110.945633      562.777432
        14        16        21     1      111.214767      547.481597
        14        16        68     1      107.753700      470.405302
        14        20        19     1      111.593033      623.894438
        14        20        60     1      108.978394      496.170713
        14        20        61     1      108.978394      496.170713
        16        14        20     1      110.866531      553.866130
        16        14        32     1      107.717125      472.279374
        16        17        18     1      111.939430      596.757301
        16        17        55     1      109.082336      493.142969
        16        17        56     1      109.082336      493.142969
        16        21        22     1      123.281532      523.533821
        16        21        33     1      117.985329      388.342599
        17        16        21     1      111.416893      612.846063
        17        16        68     1      108.673912      471.627763
        17        18        19     1      110.560959      569.917990
        17        18        50     1      110.802452      642.130488
        17        18        57     1      107.640671      495.211858
        18        17        55     1      109.789185      465.155383
        18        17        56     1      109.789185      465.155383
        18        19        20     1      111.603378      627.166571
        18        19        58     1      109.459435      468.787845
        18        19        59     1      109.459435      468.787845
        18        50        51     1      120.367775      453.866799
        18        50        52     1      118.348633      449.080890
        19        18        50     1      111.026161      653.509377
        19        18        57     1      107.798851      493.236244
        19        20        60     1      109.998474      502.411408
        19        20        61     1      109.998474      502.411408
        20        14        32     1      108.850830      471.125959
        20        19        58     1      109.708351      513.116564
        20        19        59     1      109.708351      513.116564
        21        16        68     1      106.369919      527.599138
        21        22        23     1      114.245560      430.111414
        21        22        24     1      124.890869      615.174089
        22        21        33     1      117.270615      420.964947
        22        23        25     1      124.340652      359.309363
        22        23        26     1      120.844772      468.365589
        23        22        24     1      120.964073      537.680773
        23        25        34     1      111.406593      328.705787
        23        26        35     1       88.551132      167.360000
        25        23        26     1      114.891418      167.360000
        25        34        35     1      115.272217      312.892188
        25        34        39     1      122.848999      461.667684
        26        35        34     1      110.263878      167.360000
        26        35        36     1      125.788002      401.332369
        34        35        36     1      123.996292      562.620314
        34        39        38     1      109.429955      644.587349
        34        39        45     1      109.759384      484.571854
        34        39        46     1      109.759384      484.571854
        35        34        39     1      121.676254      406.530862
        35        36        37     1      110.200546      563.933816
        35        36        41     1      110.205734      462.983196
        35        36        42     1      110.205734      462.983196
        36        37        38     1      111.045578      613.756014
        36        37        40     1      111.203835      630.245325
        37        36        41     1      109.551048      459.134690
        37        36        42     1      109.551048      459.134690
        37        38        39     1      112.270889      625.644432
        37        38        43     1      109.041969      476.770682
        37        38        44     1      109.041969      476.770682
        37        40        47     1      110.858498      481.423224
        37        40        48     1      110.858498      481.423224
        37        40        49     1      110.858498      481.423224
        38        37        40     1      112.192528      649.121399
        38        39        45     1      110.261795      502.853519
        38        39        46     1      110.261795      502.853519
        39        38        43     1      109.631447      493.664916
        39        38        44     1      109.631447      493.664916
        41        36        42     1      106.585083      354.341693
        43        38        44     1      107.114723      348.812845
        45        39        46     1      106.901878      363.316136
        47        40        48     1      108.062943      347.504005
        47        40        49     1      108.062943      347.504005
        48        40        49     1      108.062943      347.504005
        50        18        57     1      108.212730      515.178845
        50        52        53     1      122.129654      505.902714
        50        52        54     1      122.129654      505.902714
        51        50        52     1      121.081711      636.267423
        52        53        62     1      110.326584      477.859265
        52        53        63     1      110.326584      477.859265
        52        53        64     1      110.326584      477.859265
        52        54        65     1      110.326584      477.859265
        52        54        66     1      110.326584      477.859265
        52        54        67     1      110.326584      477.859265
        53        52        54     1      114.947632      573.331217
        55        17        56     1      107.084274      355.159487
        58        19        59     1      106.645180      359.821255
        60        20        61     1      106.839844      356.387024
        62        53        63     1      108.724693      349.793087
        62        53        64     1      108.724693      349.793087
        63        53        64     1      108.724709      349.793087
        65        54        66     1      108.724709      349.793087
        65        54        67     1      108.724709      349.793087
        66        54        67     1      108.724709      349.793087

[ dihedrals ] ; propers for gromacs 4.5 or higher, use funct 9
;       ai        aj        ak        al funct           phase               k        pn
         1         3         4         5     9        0.000000        0.157249         1
         1         3         4         5     9      180.000000       17.332661         2
         1         3         4         5     9        0.000000        0.216655         3
         1         3         4         5     9      180.000000       -0.313497         4
         1         3         8         9     9        0.000000       -0.223844         1
         1         3         8         9     9      180.000000       15.894707         2
         1         3         8         9     9        0.000000       -0.912623         3
         1         3         8         9     9      180.000000       -0.225566         4
         1         3         8        28     9        0.000000       -0.062150         1
         1         3         8        28     9      180.000000       11.982206         2
         1         3         8        28     9        0.000000       -0.115025         3
         1         3         8        28     9      180.000000       -0.034102         4
         1         7         6         5     9        0.000000       -0.158971         1
         1         7         6         5     9      180.000000       20.116882         2
         1         7         6         5     9        0.000000       -1.748112         3
         1         7         6         5     9      180.000000       -0.539182         4
         1         7         6        69     9        0.000000        0.091589         1
         1         7         6        69     9      180.000000       15.866493         2
         1         7         6        69     9        0.000000       -0.389547         3
         1         7         6        69     9      180.000000        0.022069         4
         1        11        10         2     9        0.000000        0.203431         1
         1        11        10         2     9      180.000000       22.101550         2
         1        11        10         2     9        0.000000        0.235359         3
         1        11        10         2     9      180.000000       -0.997415         4
         1        11        10         9     9        0.000000       -0.144883         1
         1        11        10         9     9      180.000000       19.480030         2
         1        11        10         9     9        0.000000       -1.426236         3
         1        11        10         9     9      180.000000       -0.516314         4
         2        10         9         8     9        0.000000        0.226653         1
         2        10         9         8     9      180.000000       16.608833         2
         2        10         9         8     9        0.000000        0.202625         3
         2        10         9         8     9      180.000000       -0.427116         4
         2        10         9        29     9        0.000000        0.143932         1
         2        10         9        29     9      180.000000       12.320726         2
         2        10         9        29     9        0.000000       -0.140225         3
         2        10         9        29     9      180.000000        0.216733         4
         2        10        11        30     9        0.000000        0.084005         1
         2        10        11        30     9      180.000000       14.422571         2
         2        10        11        30     9        0.000000       -0.026126         3
         2        10        11        30     9      180.000000        0.301958         4
         3         1         7         6     9        0.000000       -0.389830         1
         3         1         7         6     9      180.000000       16.114129         2
         3         1         7         6     9        0.000000       -1.226728         3
         3         1         7         6     9      180.000000       -0.288041         4
         3         1         7        27     9        0.000000       -0.019438         1
         3         1         7        27     9      180.000000       12.038682         2
         3         1         7        27     9        0.000000       -0.230541         3
         3         1         7        27     9      180.000000       -0.078377         4
         3         1        11        10     9        0.000000       -0.356022         1
         3         1        11        10     9      180.000000       16.311994         2
         3         1        11        10     9        0.000000       -0.981578         3
         3         1        11        10     9      180.000000       -0.317323         4
         3         1        11        30     9        0.000000       -0.097941         1
         3         1        11        30     9      180.000000       12.132651         2
         3         1        11        30     9        0.000000       -0.290441         3
         3         1        11        30     9      180.000000        0.007726         4
         3         4         5         6     9        0.000000       -0.104176         1
         3         4         5         6     9      180.000000       25.560001         2
         3         4         5         6     9        0.000000       -0.574604         3
         3         4         5         6     9      180.000000       -0.304226         4
         3         4         5        12     9        0.000000        0.589674         1
         3         4         5        12     9      180.000000       25.769008         2
         3         4         5        12     9        0.000000        1.066823         3
         3         4         5        12     9      180.000000       -1.284165         4
         3         8         9        10     9        0.000000       -0.140996         1
         3         8         9        10     9      180.000000       20.552375         2
         3         8         9        10     9        0.000000       -1.335555         3
         3         8         9        10     9      180.000000       -0.374209         4
         3         8         9        29     9        0.000000        0.058090         1
         3         8         9        29     9      180.000000       15.820449         2
         3         8         9        29     9        0.000000       -0.335056         3
         3         8         9        29     9      180.000000        0.130800         4
         4         3         1         7     9        0.000000        0.330187         1
         4         3         1         7     9      180.000000       11.474979         2
         4         3         1         7     9        0.000000       -0.365011         3
         4         3         1         7     9      180.000000       -0.294648         4
         4         3         1        11     9        0.000000        0.278988         1
         4         3         1        11     9      180.000000       11.506940         2
         4         3         1        11     9        0.000000       -0.379742         3
         4         3         1        11     9      180.000000       -0.273565         4
         4         3         8         9     9        0.000000        0.346848         1
         4         3         8         9     9      180.000000       14.007996         2
         4         3         8         9     9        0.000000       -0.240270         3
         4         3         8         9     9      180.000000       -0.211344         4
         4         3         8        28     9        0.000000        0.238175         1
         4         3         8        28     9      180.000000       11.938680         2
         4         3         8        28     9        0.000000       -0.315015         3
         4         3         8        28     9      180.000000       -0.053237         4
         4         5         6         7     9        0.000000       -0.220814         1
         4         5         6         7     9      180.000000       14.590920         2
         4         5         6         7     9        0.000000       -0.652437         3
         4         5         6         7     9      180.000000       -0.343982         4
         4         5         6        69     9        0.000000        0.015047         1
         4         5         6        69     9      180.000000       11.534389         2
         4         5         6        69     9        0.000000       -0.284543         3
         4         5         6        69     9      180.000000       -0.195038         4
         4         5        12        13     9        0.000000        5.557031         1
         4         5        12        13     9      180.000000        1.890968         2
         4         5        12        13     9        0.000000        0.419458         3
         4         5        12        13     9      180.000000       -0.192992         4
         4         5        12        15     9        0.000000       -4.291342         1
         4         5        12        15     9      180.000000        3.348565         2
         4         5        12        15     9        0.000000        0.552870         3
         4         5        12        15     9      180.000000        0.112736         4
         5         4         3         8     9        0.000000        0.078155         1
         5         4         3         8     9      180.000000       17.975256         2
         5         4         3         8     9        0.000000        0.877087         3
         5         4         3         8     9      180.000000       -0.467438         4
         5         6         7        27     9        0.000000        0.164047         1
         5         6         7        27     9      180.000000       15.434935         2
         5         6         7        27     9        0.000000       -0.234800         3
         5         6         7        27     9      180.000000        0.123267         4
         5        12        13        14     9        0.000000        1.245808         1
         5        12        13        14     9      180.000000       11.098178         2
         5        12        13        14     9        0.000000        0.764322         3
         5        12        13        14     9      180.000000       -0.522253         4
         5        12        13        31     9        0.000000       -0.456334         1
         5        12        13        31     9      180.000000        9.116178         2
         5        12        13        31     9        0.000000        0.285378         3
         5        12        13        31     9      180.000000        0.064244         4
         6         5        12        13     9        0.000000       -0.562585         1
         6         5        12        13     9      180.000000        3.121506         2
         6         5        12        13     9        0.000000        0.511542         3
         6         5        12        13     9      180.000000       -0.319850         4
         6         5        12        15     9        0.000000        0.789463         1
         6         5        12        15     9      180.000000        3.453059         2
         6         5        12        15     9        0.000000       -0.722230         3
         6         5        12        15     9      180.000000        0.313048         4
         6         7         1        11     9        0.000000       -0.206305         1
         6         7         1        11     9      180.000000       12.731069         2
         6         7         1        11     9        0.000000       -0.675373         3
         6         7         1        11     9      180.000000       -0.076103         4
         7         1         3         8     9        0.000000        0.178255         1
         7         1         3         8     9      180.000000       11.372678         2
         7         1         3         8     9        0.000000       -0.794617         3
         7         1         3         8     9      180.000000       -0.248838         4
         7         1        11        10     9        0.000000       -0.096812         1
         7         1        11        10     9      180.000000       13.615927         2
         7         1        11        10     9        0.000000       -0.754002         3
         7         1        11        10     9      180.000000       -0.124591         4
         7         1        11        30     9        0.000000       -0.132820         1
         7         1        11        30     9      180.000000       11.435312         2
         7         1        11        30     9        0.000000       -0.495641         3
         7         1        11        30     9      180.000000        0.069314         4
         7         6         5        12     9        0.000000        0.088440         1
         7         6         5        12     9      180.000000       11.979518         2
         7         6         5        12     9        0.000000        0.032665         3
         7         6         5        12     9      180.000000       -0.358063         4
         8         3         1        11     9        0.000000        0.216490         1
         8         3         1        11     9      180.000000       11.237619         2
         8         3         1        11     9        0.000000       -0.830520         3
         8         3         1        11     9      180.000000       -0.190391         4
         8         9        10        11     9        0.000000       -0.133479         1
         8         9        10        11     9      180.000000       15.533627         2
         8         9        10        11     9        0.000000       -1.137629         3
         8         9        10        11     9      180.000000       -0.270810         4
         9        10        11        30     9        0.000000       -0.062644         1
         9        10        11        30     9      180.000000       14.659919         2
         9        10        11        30     9        0.000000       -0.495582         3
         9        10        11        30     9      180.000000        0.059367         4
        10         9         8        28     9        0.000000        0.043176         1
        10         9         8        28     9      180.000000       15.509838         2
        10         9         8        28     9        0.000000       -0.467361         3
        10         9         8        28     9      180.000000        0.189813         4
        11         1         7        27     9        0.000000       -0.004949         1
        11         1         7        27     9      180.000000       11.216826         2
        11         1         7        27     9        0.000000       -0.401324         3
        11         1         7        27     9      180.000000        0.026094         4
        11        10         9        29     9        0.000000       -0.123993         1
        11        10         9        29     9      180.000000       12.331880         2
        11        10         9        29     9        0.000000       -0.539831         3
        11        10         9        29     9      180.000000        0.069727         4
        12         5         6        69     9        0.000000        0.098075         1
        12         5         6        69     9      180.000000       11.017736         2
        12         5         6        69     9        0.000000       -0.297144         3
        12         5         6        69     9      180.000000       -0.071795         4
        12        13        14        16     9        0.000000        1.534008         1
        12        13        14        16     9      180.000000       -0.559895         2
        12        13        14        16     9        0.000000        0.281411         3
        12        13        14        16     9      180.000000        0.242877         4
        12        13        14        20     9        0.000000        0.058925         1
        12        13        14        20     9      180.000000       -0.235141         2
        12        13        14        20     9        0.000000        0.279716         3
        12        13        14        20     9      180.000000        0.081425         4
        12        13        14        32     9        0.000000        0.022642         1
        12        13        14        32     9      180.000000        0.048143         2
        12        13        14        32     9        0.000000        0.096721         3
        12        13        14        32     9      180.000000        0.146957         4
        13        14        16        17     9        0.000000       -0.803979         1
        13        14        16        17     9      180.000000        0.179034         2
        13        14        16        17     9        0.000000        0.096440         3
        13        14        16        17     9      180.000000        0.261602         4
        13        14        16        21     9        0.000000        2.212074         1
        13        14        16        21     9      180.000000        0.075969         2
        13        14        16        21     9        0.000000       -0.480251         3
        13        14        16        21     9      180.000000        0.175003         4
        13        14        16        68     9        0.000000       -0.339197         1
        13        14        16        68     9      180.000000        0.050782         2
        13        14        16        68     9        0.000000        0.362401         3
        13        14        16        68     9      180.000000       -0.036800         4
        13        14        20        19     9        0.000000       -0.603808         1
        13        14        20        19     9      180.000000        0.764346         2
        13        14        20        19     9        0.000000        0.177886         3
        13        14        20        19     9      180.000000        0.119191         4
        13        14        20        60     9        0.000000        0.087518         1
        13        14        20        60     9      180.000000        0.098005         2
        13        14        20        60     9        0.000000        0.373842         3
        13        14        20        60     9      180.000000       -0.094241         4
        13        14        20        61     9        0.000000        0.087518         1
        13        14        20        61     9      180.000000        0.098005         2
        13        14        20        61     9        0.000000        0.373842         3
        13        14        20        61     9      180.000000       -0.094241         4
        14        13        12        15     9        0.000000       -0.096926         1
        14        13        12        15     9      180.000000       11.357027         2
        14        13        12        15     9        0.000000        0.319309         3
        14        13        12        15     9      180.000000       -1.368778         4
        14        16        17        18     9        0.000000        3.481329         1
        14        16        17        18     9      180.000000       -1.774228         2
        14        16        17        18     9        0.000000       -0.106475         3
        14        16        17        18     9      180.000000        0.001314         4
        14        16        17        55     9        0.000000       -0.108875         1
        14        16        17        55     9      180.000000        0.059970         2
        14        16        17        55     9        0.000000        0.166375         3
        14        16        17        55     9      180.000000        0.051087         4
        14        16        17        56     9        0.000000       -0.108875         1
        14        16        17        56     9      180.000000        0.059970         2
        14        16        17        56     9        0.000000        0.166375         3
        14        16        17        56     9      180.000000        0.051087         4
        14        16        21        22     9        0.000000        1.021618         1
        14        16        21        22     9      180.000000       -0.442705         2
        14        16        21        22     9        0.000000        0.338836         3
        14        16        21        22     9      180.000000        0.179329         4
        14        16        21        33     9        0.000000        0.563232         1
        14        16        21        33     9      180.000000       -1.108165         2
        14        16        21        33     9        0.000000        0.539615         3
        14        16        21        33     9      180.000000        0.016633         4
        14        20        19        18     9        0.000000        1.313110         1
        14        20        19        18     9      180.000000       -1.620582         2
        14        20        19        18     9        0.000000        0.188376         3
        14        20        19        18     9      180.000000        0.078233         4
        14        20        19        58     9        0.000000       -0.097913         1
        14        20        19        58     9      180.000000        0.068759         2
        14        20        19        58     9        0.000000        0.235386         3
        14        20        19        58     9      180.000000        0.022805         4
        14        20        19        59     9        0.000000       -0.097913         1
        14        20        19        59     9      180.000000        0.068759         2
        14        20        19        59     9        0.000000        0.235386         3
        14        20        19        59     9      180.000000        0.022805         4
        15        12        13        31     9        0.000000        0.165274         1
        15        12        13        31     9      180.000000       11.265802         2
        15        12        13        31     9        0.000000       -0.082909         3
        15        12        13        31     9      180.000000        0.109181         4
        16        14        13        31     9        0.000000        0.277261         1
        16        14        13        31     9      180.000000       -1.183477         2
        16        14        13        31     9        0.000000        0.492056         3
        16        14        13        31     9      180.000000        0.000510         4
        16        14        20        19     9        0.000000        2.721663         1
        16        14        20        19     9      180.000000       -1.667669         2
        16        14        20        19     9        0.000000        0.039106         3
        16        14        20        19     9      180.000000        0.056051         4
        16        14        20        60     9        0.000000       -0.100389         1
        16        14        20        60     9      180.000000        0.063667         2
        16        14        20        60     9        0.000000        0.181974         3
        16        14        20        60     9      180.000000        0.054231         4
        16        14        20        61     9        0.000000       -0.100389         1
        16        14        20        61     9      180.000000        0.063667         2
        16        14        20        61     9        0.000000        0.181974         3
        16        14        20        61     9      180.000000        0.054231         4
        16        17        18        19     9        0.000000        2.167701         1
        16        17        18        19     9      180.000000       -2.095071         2
        16        17        18        19     9        0.000000        0.100990         3
        16        17        18        19     9      180.000000       -0.067359         4
        16        17        18        50     9        0.000000       -0.969890         1
        16        17        18        50     9      180.000000       -0.492010         2
        16        17        18        50     9        0.000000        0.043330         3
        16        17        18        50     9      180.000000        0.044241         4
        16        17        18        57     9        0.000000       -0.731592         1
        16        17        18        57     9      180.000000        0.097424         2
        16        17        18        57     9        0.000000        0.165659         3
        16        17        18        57     9      180.000000        0.052140         4
        16        21        22        23     9        0.000000        1.551351         1
        16        21        22        23     9      180.000000       10.806241         2
        16        21        22        23     9        0.000000        0.659059         3
        16        21        22        23     9      180.000000       -0.282031         4
        16        21        22        24     9        0.000000       -0.687196         1
        16        21        22        24     9      180.000000       10.163927         2
        16        21        22        24     9        0.000000        0.483358         3
        16        21        22        24     9      180.000000       -1.334168         4
        17        16        14        20     9        0.000000        3.511478         1
        17        16        14        20     9      180.000000       -1.686692         2
        17        16        14        20     9        0.000000        0.073162         3
        17        16        14        20     9      180.000000       -0.001619         4
        17        16        14        32     9        0.000000       -0.372060         1
        17        16        14        32     9      180.000000        0.082737         2
        17        16        14        32     9        0.000000        0.302181         3
        17        16        14        32     9      180.000000        0.053142         4
        17        16        21        22     9        0.000000       -0.005175         1
        17        16        21        22     9      180.000000       -0.401672         2
        17        16        21        22     9        0.000000        0.370215         3
        17        16        21        22     9      180.000000        0.053218         4
        17        16        21        33     9        0.000000       -0.136586         1
        17        16        21        33     9      180.000000       -0.353037         2
        17        16        21        33     9        0.000000        0.351756         3
        17        16        21        33     9      180.000000       -0.038850         4
        17        18        19        20     9        0.000000        0.883010         1
        17        18        19        20     9      180.000000       -1.399872         2
        17        18        19        20     9        0.000000        0.314248         3
        17        18        19        20     9      180.000000       -0.050797         4
        17        18        19        58     9        0.000000       -0.056826         1
        17        18        19        58     9      180.000000        0.050149         2
        17        18        19        58     9        0.000000        0.270717         3
        17        18        19        58     9      180.000000        0.019384         4
        17        18        19        59     9        0.000000       -0.056826         1
        17        18        19        59     9      180.000000        0.050149         2
        17        18        19        59     9        0.000000        0.270717         3
        17        18        19        59     9      180.000000        0.019384         4
        17        18        50        51     9        0.000000       -0.455386         1
        17        18        50        51     9      180.000000        0.737900         2
        17        18        50        51     9        0.000000        0.287526         3
        17        18        50        51     9      180.000000        0.250951         4
        17        18        50        52     9        0.000000        0.270994         1
        17        18        50        52     9      180.000000        1.080078         2
        17        18        50        52     9        0.000000       -0.027563         3
        17        18        50        52     9      180.000000        0.001527         4
        18        17        16        21     9        0.000000       -0.378319         1
        18        17        16        21     9      180.000000        0.218820         2
        18        17        16        21     9        0.000000        0.056326         3
        18        17        16        21     9      180.000000        0.226509         4
        18        17        16        68     9        0.000000       -0.669048         1
        18        17        16        68     9      180.000000        0.139249         2
        18        17        16        68     9        0.000000        0.154171         3
        18        17        16        68     9      180.000000        0.076395         4
        18        19        20        60     9        0.000000       -0.080258         1
        18        19        20        60     9      180.000000        0.083233         2
        18        19        20        60     9        0.000000        0.213417         3
        18        19        20        60     9      180.000000        0.012387         4
        18        19        20        61     9        0.000000       -0.080258         1
        18        19        20        61     9      180.000000        0.083233         2
        18        19        20        61     9        0.000000        0.213417         3
        18        19        20        61     9      180.000000        0.012387         4
        18        50        52        53     9        0.000000        7.685850         1
        18        50        52        53     9      180.000000       10.413246         2
        18        50        52        53     9        0.000000        0.340038         3
        18        50        52        53     9      180.000000       -0.442447         4
        18        50        52        54     9        0.000000        7.685850         1
        18        50        52        54     9      180.000000       10.413246         2
        18        50        52        54     9        0.000000        0.340038         3
        18        50        52        54     9      180.000000       -0.442447         4
        19        18        17        55     9        0.000000       -0.052172         1
        19        18        17        55     9      180.000000        0.058083         2
        19        18        17        55     9        0.000000        0.229959         3
        19        18        17        55     9      180.000000        0.057798         4
        19        18        17        56     9        0.000000       -0.052172         1
        19        18        17        56     9      180.000000        0.058083         2
        19        18        17        56     9        0.000000        0.229959         3
        19        18        17        56     9      180.000000        0.057798         4
        19        18        50        51     9        0.000000       -0.698289         1
        19        18        50        51     9      180.000000        0.744054         2
        19        18        50        51     9        0.000000        0.336890         3
        19        18        50        51     9      180.000000        0.225666         4
        19        18        50        52     9        0.000000        0.291846         1
        19        18        50        52     9      180.000000        1.098654         2
        19        18        50        52     9        0.000000        0.042828         3
        19        18        50        52     9      180.000000       -0.012816         4
        19        20        14        32     9        0.000000       -0.429901         1
        19        20        14        32     9      180.000000        0.166353         2
        19        20        14        32     9        0.000000        0.246487         3
        19        20        14        32     9      180.000000        0.022031         4
        20        14        13        31     9        0.000000        0.026335         1
        20        14        13        31     9      180.000000       -0.074634         2
        20        14        13        31     9        0.000000        0.301487         3
        20        14        13        31     9      180.000000       -0.081426         4
        20        14        16        21     9        0.000000       -0.422691         1
        20        14        16        21     9      180.000000        0.246869         2
        20        14        16        21     9        0.000000        0.137211         3
        20        14        16        21     9      180.000000        0.209697         4
        20        14        16        68     9        0.000000       -0.374629         1
        20        14        16        68     9      180.000000        0.114271         2
        20        14        16        68     9        0.000000        0.315420         3
        20        14        16        68     9      180.000000        0.046303         4
        20        19        18        50     9        0.000000       -1.205837         1
        20        19        18        50     9      180.000000       -0.024594         2
        20        19        18        50     9        0.000000        0.127041         3
        20        19        18        50     9      180.000000        0.096010         4
        20        19        18        57     9        0.000000       -0.470892         1
        20        19        18        57     9      180.000000        0.118851         2
        20        19        18        57     9        0.000000        0.267874         3
        20        19        18        57     9      180.000000        0.031479         4
        21        16        14        32     9        0.000000       -0.394324         1
        21        16        14        32     9      180.000000        0.029196         2
        21        16        14        32     9        0.000000        0.348483         3
        21        16        14        32     9      180.000000       -0.012571         4
        21        16        17        55     9        0.000000        0.122902         1
        21        16        17        55     9      180.000000        0.128407         2
        21        16        17        55     9        0.000000        0.386720         3
        21        16        17        55     9      180.000000       -0.072984         4
        21        16        17        56     9        0.000000        0.122902         1
        21        16        17        56     9      180.000000        0.128407         2
        21        16        17        56     9        0.000000        0.386720         3
        21        16        17        56     9      180.000000       -0.072984         4
        21        22        23        25     9        0.000000        2.923749         1
        21        22        23        25     9      180.000000        2.022095         2
        21        22        23        25     9        0.000000        0.151149         3
        21        22        23        25     9      180.000000       -0.373995         4
        21        22        23        26     9        0.000000       -0.304414         1
        21        22        23        26     9      180.000000        3.200684         2
        21        22        23        26     9        0.000000        0.463910         3
        21        22        23        26     9      180.000000       -0.514292         4
        22        21        16        68     9        0.000000        0.020172         1
        22        21        16        68     9      180.000000        0.144925         2
        22        21        16        68     9        0.000000        0.214736         3
        22        21        16        68     9      180.000000        0.179789         4
        22        23        25        34     9        0.000000        0.509539         1
        22        23        25        34     9      180.000000       28.889665         2
        22        23        25        34     9        0.000000        0.564950         3
        22        23        25        34     9      180.000000       -0.961131         4
        22        23        26        35     9        0.000000       -1.127037         1
        22        23        26        35     9      180.000000       15.581777         2
        22        23        26        35     9        0.000000       -0.036420         3
        22        23        26        35     9      180.000000       -0.602861         4
        23        22        21        33     9        0.000000       -0.415752         1
        23        22        21        33     9      180.000000        9.010384         2
        23        22        21        33     9        0.000000        0.175298         3
        23        22        21        33     9      180.000000       -0.065606         4
        23        25        34        35     9        0.000000       -0.228535         1
        23        25        34        35     9      180.000000       27.756785         2
        23        25        34        35     9        0.000000       -2.863850         3
        23        25        34        35     9      180.000000       -0.158646         4
        23        25        34        39     9        0.000000        0.109642         1
        23        25        34        39     9      180.000000       22.524852         2
        23        25        34        39     9        0.000000        0.728535         3
        23        25        34        39     9      180.000000       -0.420500         4
        23        26        35        34     9        0.000000        0.019507         1
        23        26        35        34     9      180.000000       29.322726         2
        23        26        35        34     9        0.000000       -6.425576         3
        23        26        35        34     9      180.000000       -0.474428         4
        23        26        35        36     9        0.000000        0.448650         1
        23        26        35        36     9      180.000000       11.835073         2
        23        26        35        36     9        0.000000        0.424426         3
        23        26        35        36     9      180.000000       -0.134990         4
        24        22        21        33     9        0.000000       -0.005332         1
        24        22        21        33     9      180.000000       10.730372         2
        24        22        21        33     9        0.000000       -0.060300         3
        24        22        21        33     9      180.000000       -0.147584         4
        24        22        23        25     9        0.000000       -1.392140         1
        24        22        23        25     9      180.000000        3.582888         2
        24        22        23        25     9        0.000000        0.461599         3
        24        22        23        25     9      180.000000        0.214010         4
        24        22        23        26     9        0.000000        0.210149         1
        24        22        23        26     9      180.000000        4.370762         2
        24        22        23        26     9        0.000000       -0.343613         3
        24        22        23        26     9      180.000000        0.218765         4
        25        23        26        35     9        0.000000       -0.590193         1
        25        23        26        35     9      180.000000       31.322398         2
        25        23        26        35     9        0.000000       -5.851399         3
        25        23        26        35     9      180.000000       -0.585767         4
        25        34        35        26     9        0.000000       -0.800174         1
        25        34        35        26     9      180.000000       28.383673         2
        25        34        35        26     9        0.000000       -5.049933         3
        25        34        35        26     9      180.000000       -1.030530         4
        25        34        35        36     9        0.000000        0.006237         1
        25        34        35        36     9      180.000000       19.786124         2
        25        34        35        36     9        0.000000       -0.767005         3
        25        34        35        36     9      180.000000       -1.000863         4
        25        34        39        38     9        0.000000       -1.761287         1
        25        34        39        38     9      180.000000       -0.518566         2
        25        34        39        38     9        0.000000        0.250165         3
        25        34        39        38     9      180.000000        0.137553         4
        25        34        39        45     9        0.000000        0.061059         1
        25        34        39        45     9      180.000000        0.031081         2
        25        34        39        45     9        0.000000        0.254497         3
        25        34        39        45     9      180.000000       -0.033807         4
        25        34        39        46     9        0.000000        0.061059         1
        25        34        39        46     9      180.000000        0.031081         2
        25        34        39        46     9        0.000000        0.254497         3
        25        34        39        46     9      180.000000       -0.033807         4
        26        23        25        34     9        0.000000       -0.414856         1
        26        23        25        34     9      180.000000       36.017356         2
        26        23        25        34     9        0.000000       -4.165866         3
        26        23        25        34     9      180.000000        0.025250         4
        26        35        34        39     9        0.000000        0.102614         1
        26        35        34        39     9      180.000000       18.114968         2
        26        35        34        39     9        0.000000       -0.791874         3
        26        35        34        39     9      180.000000       -0.971119         4
        26        35        36        37     9        0.000000       -3.606837         1
        26        35        36        37     9      180.000000       -0.362514         2
        26        35        36        37     9        0.000000        0.387711         3
        26        35        36        37     9      180.000000        0.164191         4
        26        35        36        41     9        0.000000        0.050382         1
        26        35        36        41     9      180.000000        0.088073         2
        26        35        36        41     9        0.000000        0.411892         3
        26        35        36        41     9      180.000000       -0.037587         4
        26        35        36        42     9        0.000000        0.050382         1
        26        35        36        42     9      180.000000        0.088073         2
        26        35        36        42     9        0.000000        0.411892         3
        26        35        36        42     9      180.000000       -0.037587         4
        27         7         6        69     9        0.000000       -0.241053         1
        27         7         6        69     9      180.000000       12.296928         2
        27         7         6        69     9        0.000000       -0.683794         3
        27         7         6        69     9      180.000000        0.415957         4
        28         8         9        29     9        0.000000       -0.143120         1
        28         8         9        29     9      180.000000       12.477307         2
        28         8         9        29     9        0.000000       -0.748630         3
        28         8         9        29     9      180.000000        0.413407         4
        31        13        14        32     9        0.000000       -0.725579         1
        31        13        14        32     9      180.000000        0.143705         2
        31        13        14        32     9        0.000000        0.506446         3
        31        13        14        32     9      180.000000        0.188872         4
        32        14        16        68     9        0.000000        0.159481         1
        32        14        16        68     9      180.000000       -0.169694         2
        32        14        16        68     9        0.000000        0.419207         3
        32        14        16        68     9      180.000000       -0.050949         4
        32        14        20        60     9        0.000000        0.033058         1
        32        14        20        60     9      180.000000        0.013144         2
        32        14        20        60     9        0.000000        0.371389         3
        32        14        20        60     9      180.000000        0.011796         4
        32        14        20        61     9        0.000000        0.033058         1
        32        14        20        61     9      180.000000        0.013144         2
        32        14        20        61     9        0.000000        0.371389         3
        32        14        20        61     9      180.000000        0.011796         4
        33        21        16        68     9        0.000000       -0.794086         1
        33        21        16        68     9      180.000000        0.147692         2
        33        21        16        68     9        0.000000        0.562941         3
        33        21        16        68     9      180.000000        0.176200         4
        34        35        36        37     9        0.000000       -3.311658         1
        34        35        36        37     9      180.000000        0.893056         2
        34        35        36        37     9        0.000000       -0.312861         3
        34        35        36        37     9      180.000000        0.089561         4
        34        35        36        41     9        0.000000       -0.010515         1
        34        35        36        41     9      180.000000       -0.166834         2
        34        35        36        41     9        0.000000       -0.357655         3
        34        35        36        41     9      180.000000       -0.002483         4
        34        35        36        42     9        0.000000       -0.010515         1
        34        35        36        42     9      180.000000       -0.166834         2
        34        35        36        42     9        0.000000       -0.357655         3
        34        35        36        42     9      180.000000       -0.002483         4
        34        39        38        37     9        0.000000       -1.384129         1
        34        39        38        37     9      180.000000       -0.653292         2
        34        39        38        37     9        0.000000        0.502380         3
        34        39        38        37     9      180.000000       -0.119672         4
        34        39        38        43     9        0.000000        0.056682         1
        34        39        38        43     9      180.000000        0.029063         2
        34        39        38        43     9        0.000000        0.464816         3
        34        39        38        43     9      180.000000        0.029460         4
        34        39        38        44     9        0.000000        0.056682         1
        34        39        38        44     9      180.000000        0.029063         2
        34        39        38        44     9        0.000000        0.464816         3
        34        39        38        44     9      180.000000        0.029460         4
        35        34        39        38     9        0.000000       -0.581697         1
        35        34        39        38     9      180.000000       -0.178850         2
        35        34        39        38     9        0.000000       -0.539812         3
        35        34        39        38     9      180.000000        0.228285         4
        35        34        39        45     9        0.000000        0.001137         1
        35        34        39        45     9      180.000000       -0.132140         2
        35        34        39        45     9        0.000000       -0.440824         3
        35        34        39        45     9      180.000000        0.030108         4
        35        34        39        46     9        0.000000        0.001137         1
        35        34        39        46     9      180.000000       -0.132140         2
        35        34        39        46     9        0.000000       -0.440824         3
        35        34        39        46     9      180.000000        0.030108         4
        35        36        37        38     9        0.000000        1.757084         1
        35        36        37        38     9      180.000000       -1.262017         2
        35        36        37        38     9        0.000000        0.610032         3
        35        36        37        38     9      180.000000       -0.013762         4
        35        36        37        40     9        0.000000        0.088848         1
        35        36        37        40     9      180.000000        0.098174         2
        35        36        37        40     9        0.000000        0.957104         3
        35        36        37        40     9      180.000000        0.111039         4
        36        35        34        39     9        0.000000        0.173945         1
        36        35        34        39     9      180.000000       16.682661         2
        36        35        34        39     9        0.000000       -0.531422         3
        36        35        34        39     9      180.000000       -0.483502         4
        36        37        38        39     9        0.000000        2.929372         1
        36        37        38        39     9      180.000000       -2.275396         2
        36        37        38        39     9        0.000000        0.136332         3
        36        37        38        39     9      180.000000        0.386228         4
        36        37        38        43     9        0.000000       -0.123649         1
        36        37        38        43     9      180.000000        0.088231         2
        36        37        38        43     9        0.000000        0.293555         3
        36        37        38        43     9      180.000000        0.009401         4
        36        37        38        44     9        0.000000       -0.123649         1
        36        37        38        44     9      180.000000        0.088231         2
        36        37        38        44     9        0.000000        0.293555         3
        36        37        38        44     9      180.000000        0.009401         4
        36        37        40        47     9        0.000000       -0.036256         1
        36        37        40        47     9      180.000000        0.018735         2
        36        37        40        47     9        0.000000        1.024067         3
        36        37        40        47     9      180.000000        0.001601         4
        36        37        40        48     9        0.000000       -0.036256         1
        36        37        40        48     9      180.000000        0.018735         2
        36        37        40        48     9        0.000000        1.024067         3
        36        37        40        48     9      180.000000        0.001601         4
        36        37        40        49     9        0.000000       -0.036256         1
        36        37        40        49     9      180.000000        0.018735         2
        36        37        40        49     9        0.000000        1.024067         3
        36        37        40        49     9      180.000000        0.001601         4
        37        38        39        45     9        0.000000       -0.054085         1
        37        38        39        45     9      180.000000        0.034526         2
        37        38        39        45     9        0.000000        0.373195         3
        37        38        39        45     9      180.000000        0.083514         4
        37        38        39        46     9        0.000000       -0.054085         1
        37        38        39        46     9      180.000000        0.034526         2
        37        38        39        46     9        0.000000        0.373195         3
        37        38        39        46     9      180.000000        0.083514         4
        38        37        36        41     9        0.000000       -0.029691         1
        38        37        36        41     9      180.000000        0.036400         2
        38        37        36        41     9        0.000000        0.631979         3
        38        37        36        41     9      180.000000        0.071457         4
        38        37        36        42     9        0.000000       -0.029691         1
        38        37        36        42     9      180.000000        0.036400         2
        38        37        36        42     9        0.000000        0.631979         3
        38        37        36        42     9      180.000000        0.071457         4
        38        37        40        47     9        0.000000       -0.014100         1
        38        37        40        47     9      180.000000        0.015343         2
        38        37        40        47     9        0.000000        0.884158         3
        38        37        40        47     9      180.000000        0.019132         4
        38        37        40        48     9        0.000000       -0.014100         1
        38        37        40        48     9      180.000000        0.015343         2
        38        37        40        48     9        0.000000        0.884158         3
        38        37        40        48     9      180.000000        0.019132         4
        38        37        40        49     9        0.000000       -0.014100         1
        38        37        40        49     9      180.000000        0.015343         2
        38        37        40        49     9        0.000000        0.884158         3
        38        37        40        49     9      180.000000        0.019132         4
        39        38        37        40     9        0.000000        1.698500         1
        39        38        37        40     9      180.000000       -0.487751         2
        39        38        37        40     9        0.000000        0.450767         3
        39        38        37        40     9      180.000000        0.246699         4
        40        37        36        41     9        0.000000        0.111988         1
        40        37        36        41     9      180.000000        0.004567         2
        40        37        36        41     9        0.000000        0.981665         3
        40        37        36        41     9      180.000000       -0.069874         4
        40        37        36        42     9        0.000000        0.111988         1
        40        37        36        42     9      180.000000        0.004567         2
        40        37        36        42     9        0.000000        0.981665         3
        40        37        36        42     9      180.000000       -0.069874         4
        40        37        38        43     9        0.000000       -0.115413         1
        40        37        38        43     9      180.000000       -0.101300         2
        40        37        38        43     9        0.000000        0.611434         3
        40        37        38        43     9      180.000000       -0.123227         4
        40        37        38        44     9        0.000000       -0.115413         1
        40        37        38        44     9      180.000000       -0.101300         2
        40        37        38        44     9        0.000000        0.611434         3
        40        37        38        44     9      180.000000       -0.123227         4
        43        38        39        45     9        0.000000       -0.014895         1
        43        38        39        45     9      180.000000       -0.022227         2
        43        38        39        45     9        0.000000        0.401862         3
        43        38        39        45     9      180.000000       -0.001746         4
        43        38        39        46     9        0.000000       -0.014895         1
        43        38        39        46     9      180.000000       -0.022227         2
        43        38        39        46     9        0.000000        0.401862         3
        43        38        39        46     9      180.000000       -0.001746         4
        44        38        39        45     9        0.000000       -0.014895         1
        44        38        39        45     9      180.000000       -0.022227         2
        44        38        39        45     9        0.000000        0.401862         3
        44        38        39        45     9      180.000000       -0.001746         4
        44        38        39        46     9        0.000000       -0.014895         1
        44        38        39        46     9      180.000000       -0.022227         2
        44        38        39        46     9        0.000000        0.401862         3
        44        38        39        46     9      180.000000       -0.001746         4
        50        18        17        55     9        0.000000        0.178565         1
        50        18        17        55     9      180.000000        0.124017         2
        50        18        17        55     9        0.000000        0.213224         3
        50        18        17        55     9      180.000000       -0.042705         4
        50        18        17        56     9        0.000000        0.178565         1
        50        18        17        56     9      180.000000        0.124017         2
        50        18        17        56     9        0.000000        0.213224         3
        50        18        17        56     9      180.000000       -0.042705         4
        50        18        19        58     9        0.000000        0.159078         1
        50        18        19        58     9      180.000000        0.098531         2
        50        18        19        58     9        0.000000        0.249228         3
        50        18        19        58     9      180.000000       -0.047820         4
        50        18        19        59     9        0.000000        0.159078         1
        50        18        19        59     9      180.000000        0.098531         2
        50        18        19        59     9        0.000000        0.249228         3
        50        18        19        59     9      180.000000       -0.047820         4
        50        52        53        62     9        0.000000       -0.008626         1
        50        52        53        62     9      180.000000        0.038862         2
        50        52        53        62     9        0.000000        0.235749         3
        50        52        53        62     9      180.000000        0.020475         4
        50        52        53        63     9        0.000000       -0.008626         1
        50        52        53        63     9      180.000000        0.038862         2
        50        52        53        63     9        0.000000        0.235749         3
        50        52        53        63     9      180.000000        0.020475         4
        50        52        53        64     9        0.000000       -0.008626         1
        50        52        53        64     9      180.000000        0.038862         2
        50        52        53        64     9        0.000000        0.235749         3
        50        52        53        64     9      180.000000        0.020475         4
        50        52        54        65     9        0.000000       -0.008626         1
        50        52        54        65     9      180.000000        0.038862         2
        50        52        54        65     9        0.000000        0.235749         3
        50        52        54        65     9      180.000000        0.020475         4
        50        52        54        66     9        0.000000       -0.008626         1
        50        52        54        66     9      180.000000        0.038862         2
        50        52        54        66     9        0.000000        0.235749         3
        50        52        54        66     9      180.000000        0.020475         4
        50        52        54        67     9        0.000000       -0.008626         1
        50        52        54        67     9      180.000000        0.038862         2
        50        52        54        67     9        0.000000        0.235749         3
        50        52        54        67     9      180.000000        0.020475         4
        51        50        18        57     9        0.000000        1.593583         1
        51        50        18        57     9      180.000000        0.703025         2
        51        50        18        57     9        0.000000        0.717740         3
        51        50        18        57     9      180.000000       -0.500486         4
        51        50        52        53     9        0.000000       -0.375518         1
        51        50        52        53     9      180.000000       13.044421         2
        51        50        52        53     9        0.000000       -1.547115         3
        51        50        52        53     9      180.000000       -0.087257         4
        51        50        52        54     9        0.000000       -0.375518         1
        51        50        52        54     9      180.000000       13.044421         2
        51        50        52        54     9        0.000000       -1.547115         3
        51        50        52        54     9      180.000000       -0.087257         4
        52        50        18        57     9        0.000000       -0.215324         1
        52        50        18        57     9      180.000000        0.004504         2
        52        50        18        57     9        0.000000       -0.151551         3
        52        50        18        57     9      180.000000       -0.047823         4
        53        52        54        65     9        0.000000       -0.024574         1
        53        52        54        65     9      180.000000        0.053683         2
        53        52        54        65     9        0.000000        1.208154         3
        53        52        54        65     9      180.000000        0.010416         4
        53        52        54        66     9        0.000000       -0.024574         1
        53        52        54        66     9      180.000000        0.053683         2
        53        52        54        66     9        0.000000        1.208154         3
        53        52        54        66     9      180.000000        0.010416         4
        53        52        54        67     9        0.000000       -0.024574         1
        53        52        54        67     9      180.000000        0.053683         2
        53        52        54        67     9        0.000000        1.208154         3
        53        52        54        67     9      180.000000        0.010416         4
        54        52        53        62     9        0.000000       -0.024574         1
        54        52        53        62     9      180.000000        0.053683         2
        54        52        53        62     9        0.000000        1.208154         3
        54        52        53        62     9      180.000000        0.010416         4
        54        52        53        63     9        0.000000       -0.024574         1
        54        52        53        63     9      180.000000        0.053683         2
        54        52        53        63     9        0.000000        1.208154         3
        54        52        53        63     9      180.000000        0.010416         4
        54        52        53        64     9        0.000000       -0.024574         1
        54        52        53        64     9      180.000000        0.053683         2
        54        52        53        64     9        0.000000        1.208154         3
        54        52        53        64     9      180.000000        0.010416         4
        55        17        16        68     9        0.000000        0.032620         1
        55        17        16        68     9      180.000000        0.014450         2
        55        17        16        68     9        0.000000        0.397221         3
        55        17        16        68     9      180.000000        0.013351         4
        55        17        18        57     9        0.000000        0.092902         1
        55        17        18        57     9      180.000000        0.093401         2
        55        17        18        57     9        0.000000        0.416253         3
        55        17        18        57     9      180.000000       -0.035407         4
        56        17        16        68     9        0.000000        0.032620         1
        56        17        16        68     9      180.000000        0.014450         2
        56        17        16        68     9        0.000000        0.397221         3
        56        17        16        68     9      180.000000        0.013351         4
        56        17        18        57     9        0.000000        0.092902         1
        56        17        18        57     9      180.000000        0.093401         2
        56        17        18        57     9        0.000000        0.416253         3
        56        17        18        57     9      180.000000       -0.035407         4
        57        18        19        58     9        0.000000        0.089169         1
        57        18        19        58     9      180.000000        0.058938         2
        57        18        19        58     9        0.000000        0.395713         3
        57        18        19        58     9      180.000000       -0.024133         4
        57        18        19        59     9        0.000000        0.089169         1
        57        18        19        59     9      180.000000        0.058938         2
        57        18        19        59     9        0.000000        0.395713         3
        57        18        19        59     9      180.000000       -0.024133         4
        58        19        20        60     9        0.000000        0.013546         1
        58        19        20        60     9      180.000000        0.010717         2
        58        19        20        60     9        0.000000        0.296412         3
        58        19        20        60     9      180.000000        0.043706         4
        58        19        20        61     9        0.000000        0.013546         1
        58        19        20        61     9      180.000000        0.010717         2
        58        19        20        61     9        0.000000        0.296412         3
        58        19        20        61     9      180.000000        0.043706         4
        59        19        20        60     9        0.000000        0.013546         1
        59        19        20        60     9      180.000000        0.010717         2
        59        19        20        60     9        0.000000        0.296412         3
        59        19        20        60     9      180.000000        0.043706         4
        59        19        20        61     9        0.000000        0.013546         1
        59        19        20        61     9      180.000000        0.010717         2
        59        19        20        61     9        0.000000        0.296412         3
        59        19        20        61     9      180.000000        0.043706         4

[ dihedrals ] ; impropers
;       ai        aj        ak        al funct           phase               k        pn
         3         1         4         8     4      180.000000        4.039196         2
         3         4         8         1     4      180.000000        4.039196         2
         3         8         1         4     4      180.000000        4.039196         2
         8         3         9        28     4      180.000000        0.195657         2
         8         9        28         3     4      180.000000        0.195657         2
         8        28         3         9     4      180.000000        0.195657         2
        12         5        13        15     4      180.000000       24.409282         2
        12        13        15         5     4      180.000000       24.409282         2
        12        15         5        13     4      180.000000       24.409282         2
        22        21        23        24     4      180.000000       14.088156         2
        22        23        24        21     4      180.000000       14.088156         2
        22        24        21        23     4      180.000000       14.088156         2
        50        18        51        52     4      180.000000       15.867169         2
        50        51        52        18     4      180.000000       15.867169         2
        50        52        18        51     4      180.000000       15.867169         2

[ pairs ]
;       ai        aj funct
         1         2     1
         1         5     1
         1         9     1
         1        28     1
         1        69     1
         2         8     1
         2        29     1
         2        30     1
         3         6     1
         3        10     1
         3        12     1
         3        27     1
         3        29     1
         3        30     1
         4         7     1
         4         9     1
         4        11     1
         4        13     1
         4        15     1
         4        28     1
         4        69     1
         5         8     1
         5        14     1
         5        27     1
         5        31     1
         6        11     1
         6        13     1
         6        15     1
         7         8     1
         7        10     1
         7        12     1
         7        30     1
         8        11     1
         9        30     1
        10        28     1
        11        27     1
        11        29     1
        12        16     1
        12        20     1
        12        32     1
        12        69     1
        13        17     1
        13        19     1
        13        21     1
        13        60     1
        13        61     1
        13        68     1
        14        15     1
        14        18     1
        14        22     1
        14        33     1
        14        55     1
        14        56     1
        14        58     1
        14        59     1
        15        31     1
        16        19     1
        16        23     1
        16        24     1
        16        31     1
        16        50     1
        16        57     1
        16        60     1
        16        61     1
        17        20     1
        17        22     1
        17        32     1
        17        33     1
        17        51     1
        17        52     1
        17        58     1
        17        59     1
        18        21     1
        18        53     1
        18        54     1
        18        60     1
        18        61     1
        18        68     1
        19        32     1
        19        51     1
        19        52     1
        19        55     1
        19        56     1
        20        21     1
        20        31     1
        20        50     1
        20        57     1
        20        68     1
        21        25     1
        21        26     1
        21        32     1
        21        55     1
        21        56     1
        22        34     1
        22        35     1
        22        68     1
        23        33     1
        23        36     1
        23        39     1
        24        25     1
        24        26     1
        24        33     1
        25        36     1
        25        38     1
        25        45     1
        25        46     1
        26        37     1
        26        39     1
        26        41     1
        26        42     1
        27        69     1
        28        29     1
        31        32     1
        32        60     1
        32        61     1
        32        68     1
        33        68     1
        34        37     1
        34        41     1
        34        42     1
        34        43     1
        34        44     1
        35        38     1
        35        40     1
        35        45     1
        35        46     1
        36        39     1
        36        43     1
        36        44     1
        36        47     1
        36        48     1
        36        49     1
        37        45     1
        37        46     1
        38        41     1
        38        42     1
        38        47     1
        38        48     1
        38        49     1
        39        40     1
        40        41     1
        40        42     1
        40        43     1
        40        44     1
        43        45     1
        43        46     1
        44        45     1
        44        46     1
        50        55     1
        50        56     1
        50        58     1
        50        59     1
        50        62     1
        50        63     1
        50        64     1
        50        65     1
        50        66     1
        50        67     1
        51        53     1
        51        54     1
        51        57     1
        52        57     1
        53        65     1
        53        66     1
        53        67     1
        54        62     1
        54        63     1
        54        64     1
        55        57     1
        55        68     1
        56        57     1
        56        68     1
        57        58     1
        57        59     1
        58        60     1
        58        61     1
        59        60     1
        59        61     1
