; ITP file created by ByteFF-ML, 2025-12-06 08:05:13.839335

[ atomtypes ]
;name           bonded.type        at.num        mass        charge   ptype           sigma         epsilon
 c0bf                                   6      0.0000       0.00000       A     3.31386e-01     4.11650e-01
 cl1bf                                 17      0.0000       0.00000       A     3.46707e-01     1.10492e+00
 c2bf                                   6      0.0000       0.00000       A     3.31642e-01     4.13340e-01
 c3bf                                   6      0.0000       0.00000       A     3.31408e-01     4.14276e-01
 c4bf                                   6      0.0000       0.00000       A     3.31414e-01     4.10726e-01
 n5bf                                   7      0.0000       0.00000       A     3.38258e-01     3.91553e-01
 c6bf                                   6      0.0000       0.00000       A     3.31477e-01     4.13929e-01
 c7bf                                   6      0.0000       0.00000       A     3.31558e-01     4.13409e-01
 c8bf                                   6      0.0000       0.00000       A     3.31508e-01     4.12865e-01
 c9bf                                   6      0.0000       0.00000       A     3.31517e-01     4.12143e-01
 c10bf                                  6      0.0000       0.00000       A     3.31490e-01     4.13246e-01
 c11bf                                  6      0.0000       0.00000       A     3.31350e-01     4.12793e-01
 n12bf                                  7      0.0000       0.00000       A     3.26384e-01     4.89476e-01
 c13bf                                  6      0.0000       0.00000       A     3.39882e-01     4.48406e-01
 o14bf                                  8      0.0000       0.00000       A     3.04627e-01     6.10497e-01
 c15bf                                  6      0.0000       0.00000       A     3.39970e-01     4.49282e-01
 c16bf                                  6      0.0000       0.00000       A     3.39695e-01     4.50020e-01
 c17bf                                  6      0.0000       0.00000       A     3.39807e-01     4.51065e-01
 c18bf                                  6      0.0000       0.00000       A     3.39783e-01     4.50599e-01
 c19bf                                  6      0.0000       0.00000       A     3.39773e-01     4.51249e-01
 n20bf                                  7      0.0000       0.00000       A     3.26602e-01     4.88281e-01
 c21bf                                  6      0.0000       0.00000       A     3.31258e-01     4.13621e-01
 c22bf                                  6      0.0000       0.00000       A     3.31371e-01     4.12927e-01
 o23bf                                  8      0.0000       0.00000       A     3.04582e-01     6.10219e-01
 n24bf                                  7      0.0000       0.00000       A     3.38377e-01     3.93517e-01
 s25bf                                 16      0.0000       0.00000       A     3.53468e-01     1.17897e+00
 h26bf                                  1      0.0000       0.00000       A     2.62416e-01     6.66614e-02
 h27bf                                  1      0.0000       0.00000       A     2.53615e-01     6.72695e-02
 h28bf                                  1      0.0000       0.00000       A     2.62474e-01     6.71323e-02
 h29bf                                  1      0.0000       0.00000       A     2.62534e-01     6.73797e-02
 h30bf                                  1      0.0000       0.00000       A     2.62404e-01     6.73382e-02
 h31bf                                  1      0.0000       0.00000       A     1.10453e-01     4.01555e-02
 h32bf                                  1      0.0000       0.00000       A     2.42179e-01     8.63601e-02
 h33bf                                  1      0.0000       0.00000       A     1.10612e-01     4.02241e-02
 c34bf                                  6      0.0000       0.00000       A     3.31347e-01     4.13267e-01
 c35bf                                  6      0.0000       0.00000       A     3.31421e-01     4.13824e-01
 c36bf                                  6      0.0000       0.00000       A     3.39969e-01     4.50893e-01
 n37bf                                  7      0.0000       0.00000       A     3.36930e-01     3.57427e-01
 c38bf                                  6      0.0000       0.00000       A     3.39827e-01     4.51767e-01
 c39bf                                  6      0.0000       0.00000       A     3.39882e-01     4.51317e-01
 c40bf                                  6      0.0000       0.00000       A     3.39758e-01     4.50040e-01
 h41bf                                  1      0.0000       0.00000       A     2.42170e-01     8.71342e-02
 h42bf                                  1      0.0000       0.00000       A     2.42170e-01     8.71342e-02
 h43bf                                  1      0.0000       0.00000       A     2.42257e-01     8.79530e-02
 h44bf                                  1      0.0000       0.00000       A     2.42257e-01     8.79530e-02
 h45bf                                  1      0.0000       0.00000       A     2.59883e-01     8.84270e-02
 h46bf                                  1      0.0000       0.00000       A     2.59883e-01     8.84270e-02
 h47bf                                  1      0.0000       0.00000       A     2.41989e-01     8.72555e-02
 h48bf                                  1      0.0000       0.00000       A     2.41989e-01     8.72555e-02
 h49bf                                  1      0.0000       0.00000       A     2.41989e-01     8.72555e-02
 c50bf                                  6      0.0000       0.00000       A     3.31656e-01     4.11194e-01
 o51bf                                  8      0.0000       0.00000       A     3.04848e-01     6.12895e-01
 n52bf                                  7      0.0000       0.00000       A     3.18436e-01     6.83644e-01
 c53bf                                  6      0.0000       0.00000       A     3.39787e-01     4.50128e-01
 c54bf                                  6      0.0000       0.00000       A     3.39787e-01     4.50128e-01
 h55bf                                  1      0.0000       0.00000       A     2.59758e-01     8.65469e-02
 h56bf                                  1      0.0000       0.00000       A     2.59758e-01     8.65469e-02
 h57bf                                  1      0.0000       0.00000       A     2.59710e-01     8.69571e-02
 h58bf                                  1      0.0000       0.00000       A     2.59950e-01     8.71566e-02
 h59bf                                  1      0.0000       0.00000       A     2.59950e-01     8.71566e-02
 h60bf                                  1      0.0000       0.00000       A     2.59873e-01     8.66777e-02
 h61bf                                  1      0.0000       0.00000       A     2.59873e-01     8.66777e-02
 h62bf                                  1      0.0000       0.00000       A     2.42033e-01     8.76162e-02
 h63bf                                  1      0.0000       0.00000       A     2.42033e-01     8.76162e-02
 h64bf                                  1      0.0000       0.00000       A     2.42033e-01     8.76162e-02
 h65bf                                  1      0.0000       0.00000       A     2.42033e-01     8.76162e-02
 h66bf                                  1      0.0000       0.00000       A     2.42033e-01     8.76162e-02
 h67bf                                  1      0.0000       0.00000       A     2.42033e-01     8.76162e-02
 h68bf                                  1      0.0000       0.00000       A     2.42061e-01     8.64671e-02

[ moleculetype ]
;name             nrexcl
 5c                    3

[ atoms ]
;       nr            type      resi   res      atom      cgnr      charge          mass ; qtot
         1            c0bf         1   UNL        c0         1    -0.07740       12.0110 ; qtot   -0.077
         2           cl1bf         1   UNL       cl1         2    -0.19893       35.4530 ; qtot   -0.276
         3            c2bf         1   UNL        c2         3    -0.03039       12.0110 ; qtot   -0.307
         4            c3bf         1   UNL        c3         4    -0.06719       12.0110 ; qtot   -0.374
         5            c4bf         1   UNL        c4         5     0.26216       12.0110 ; qtot   -0.112
         6            n5bf         1   UNL        n5         6    -0.66100       14.0070 ; qtot   -0.773
         7            c6bf         1   UNL        c6         7     0.36312       12.0110 ; qtot   -0.410
         8            c7bf         1   UNL        c7         8    -0.08528       12.0110 ; qtot   -0.495
         9            c8bf         1   UNL        c8         9    -0.08925       12.0110 ; qtot   -0.584
        10            c9bf         1   UNL        c9        10     0.11426       12.0110 ; qtot   -0.470
        11           c10bf         1   UNL       c10        11    -0.07165       12.0110 ; qtot   -0.542
        12           c11bf         1   UNL       c11        12     0.51525       12.0110 ; qtot   -0.026
        13           n12bf         1   UNL       n12        13    -0.48544       14.0070 ; qtot   -0.512
        14           c13bf         1   UNL       c13        14     0.09663       12.0110 ; qtot   -0.415
        15           o14bf         1   UNL       o14        15    -0.60400       15.9990 ; qtot   -1.019
        16           c15bf         1   UNL       c15        16     0.09853       12.0110 ; qtot   -0.921
        17           c16bf         1   UNL       c16        17    -0.07593       12.0110 ; qtot   -0.997
        18           c17bf         1   UNL       c17        18    -0.13491       12.0110 ; qtot   -1.131
        19           c18bf         1   UNL       c18        19    -0.06728       12.0110 ; qtot   -1.199
        20           c19bf         1   UNL       c19        20    -0.08744       12.0110 ; qtot   -1.286
        21           n20bf         1   UNL       n20        21    -0.49001       14.0070 ; qtot   -1.776
        22           c21bf         1   UNL       c21        22     0.53549       12.0110 ; qtot   -1.241
        23           c22bf         1   UNL       c22        23     0.38153       12.0110 ; qtot   -0.859
        24           o23bf         1   UNL       o23        24    -0.58023       15.9990 ; qtot   -1.439
        25           n24bf         1   UNL       n24        25    -0.61219       14.0070 ; qtot   -2.052
        26           s25bf         1   UNL       s25        26     0.02030       32.0670 ; qtot   -2.031
        27           h26bf         1   UNL       h26        27     0.14782        1.0080 ; qtot   -1.883
        28           h27bf         1   UNL       h27        28     0.02637        1.0080 ; qtot   -1.857
        29           h28bf         1   UNL       h28        29     0.12552        1.0080 ; qtot   -1.732
        30           h29bf         1   UNL       h29        30     0.13357        1.0080 ; qtot   -1.598
        31           h30bf         1   UNL       h30        31     0.13769        1.0080 ; qtot   -1.460
        32           h31bf         1   UNL       h31        32     0.34696        1.0080 ; qtot   -1.113
        33           h32bf         1   UNL       h32        33     0.07740        1.0080 ; qtot   -1.036
        34           h33bf         1   UNL       h33        34     0.34007        1.0080 ; qtot   -0.696
        35           c34bf         1   UNL       c34        35     0.28744       12.0110 ; qtot   -0.408
        36           c35bf         1   UNL       c35        36    -0.23576       12.0110 ; qtot   -0.644
        37           c36bf         1   UNL       c36        37     0.24225       12.0110 ; qtot   -0.402
        38           n37bf         1   UNL       n37        38    -0.71279       14.0070 ; qtot   -1.115
        39           c38bf         1   UNL       c38        39     0.15975       12.0110 ; qtot   -0.955
        40           c39bf         1   UNL       c39        40    -0.11333       12.0110 ; qtot   -1.068
        41           c40bf         1   UNL       c40        41     0.14641       12.0110 ; qtot   -0.922
        42           h41bf         1   UNL       h41        42     0.05577        1.0080 ; qtot   -0.866
        43           h42bf         1   UNL       h42        43     0.05577        1.0080 ; qtot   -0.810
        44           h43bf         1   UNL       h43        44     0.04433        1.0080 ; qtot   -0.766
        45           h44bf         1   UNL       h44        45     0.04433        1.0080 ; qtot   -0.722
        46           h45bf         1   UNL       h45        46     0.06561        1.0080 ; qtot   -0.656
        47           h46bf         1   UNL       h46        47     0.06561        1.0080 ; qtot   -0.590
        48           h47bf         1   UNL       h47        48     0.03413        1.0080 ; qtot   -0.556
        49           h48bf         1   UNL       h48        49     0.03413        1.0080 ; qtot   -0.522
        50           h49bf         1   UNL       h49        50     0.03413        1.0080 ; qtot   -0.488
        51           c50bf         1   UNL       c50        51     0.60518       12.0110 ; qtot    0.117
        52           o51bf         1   UNL       o51        52    -0.60574       15.9990 ; qtot   -0.489
        53           n52bf         1   UNL       n52        53    -0.42066       14.0070 ; qtot   -0.909
        54           c53bf         1   UNL       c53        54     0.08301       12.0110 ; qtot   -0.826
        55           c54bf         1   UNL       c54        55     0.08301       12.0110 ; qtot   -0.743
        56           h55bf         1   UNL       h55        56     0.06130        1.0080 ; qtot   -0.682
        57           h56bf         1   UNL       h56        57     0.06130        1.0080 ; qtot   -0.621
        58           h57bf         1   UNL       h57        58     0.06316        1.0080 ; qtot   -0.558
        59           h58bf         1   UNL       h58        59     0.05027        1.0080 ; qtot   -0.507
        60           h59bf         1   UNL       h59        60     0.05027        1.0080 ; qtot   -0.457
        61           h60bf         1   UNL       h60        61     0.05517        1.0080 ; qtot   -0.402
        62           h61bf         1   UNL       h61        62     0.05517        1.0080 ; qtot   -0.347
        63           h62bf         1   UNL       h62        63     0.04477        1.0080 ; qtot   -0.302
        64           h63bf         1   UNL       h63        64     0.04477        1.0080 ; qtot   -0.257
        65           h64bf         1   UNL       h64        65     0.04477        1.0080 ; qtot   -0.212
        66           h65bf         1   UNL       h65        66     0.04477        1.0080 ; qtot   -0.168
        67           h66bf         1   UNL       h66        67     0.04477        1.0080 ; qtot   -0.123
        68           h67bf         1   UNL       h67        68     0.04477        1.0080 ; qtot   -0.078
        69           h68bf         1   UNL       h68        69     0.07801        1.0080 ; qtot    0.000

[ bonds ]
;       ai        aj funct               r               k
         1         3     1        0.142745   256269.744629
         1         7     1        0.142448   256896.910498
         1        11     1        0.141861   279564.465967
         2        10     1        0.175448   151705.445508
         3         4     1        0.141539   281757.439697
         3         8     1        0.142146   275508.866553
         4         5     1        0.137932   326603.004248
         4        27     1        0.108455   323739.630322
         5         6     1        0.136435   256031.738770
         5        12     1        0.151271   168452.847827
         6         7     1        0.131561   384291.564160
         7        28     1        0.108951   309782.297656
         8         9     1        0.137807   358766.074170
         8        29     1        0.108611   319986.134912
         9        10     1        0.141794   264046.100879
         9        30     1        0.108463   325190.827637
        10        11     1        0.137685   346536.071582
        11        31     1        0.108492   323491.026562
        12        13     1        0.135787   320127.763721
        12        15     1        0.123604   582489.615625
        13        14     1        0.146114   192692.403906
        13        32     1        0.101534   408106.042285
        14        16     1        0.154771   156432.658130
        14        20     1        0.153894   172874.585547
        14        33     1        0.109299   301876.417187
        16        17     1        0.153890   171755.268506
        16        21     1        0.146250   191046.869189
        16        69     1        0.109290   301765.586133
        17        18     1        0.154579   164893.255688
        17        56     1        0.109326   300596.548340
        17        57     1        0.109326   300596.548340
        18        19     1        0.154661   163666.440186
        18        51     1        0.153191   158389.847729
        18        58     1        0.109414   302100.760693
        19        20     1        0.153693   181138.049390
        19        59     1        0.109447   297470.142188
        19        60     1        0.109447   297470.142188
        20        61     1        0.109408   298814.185791
        20        62     1        0.109408   298814.185791
        21        22     1        0.136095   315450.182471
        21        34     1        0.101409   412617.504639
        22        23     1        0.149761   181928.244165
        22        24     1        0.123205   595504.348047
        23        25     1        0.130744   394780.497705
        23        26     1        0.175753   114860.619019
        25        35     1        0.137483   250388.573877
        26        36     1        0.173418   163411.796899
        35        36     1        0.137232   358668.241504
        35        40     1        0.150284   209899.921094
        36        37     1        0.150545   205958.217187
        37        38     1        0.146468   191918.016602
        37        42     1        0.110015   279945.249805
        37        43     1        0.110015   279945.249805
        38        39     1        0.146781   189560.941406
        38        41     1        0.146077   206296.839258
        39        40     1        0.153813   178870.826514
        39        44     1        0.109814   285833.034668
        39        45     1        0.109814   285833.034668
        40        46     1        0.109539   296322.146973
        40        47     1        0.109539   296322.146973
        41        48     1        0.109765   288786.094922
        41        49     1        0.109765   288786.094922
        41        50     1        0.109765   288786.094922
        51        52     1        0.123512   586720.450684
        51        53     1        0.137606   276714.984229
        53        54     1        0.145947   208517.482446
        53        55     1        0.145947   208517.482446
        54        63     1        0.109324   300806.693213
        54        64     1        0.109324   300806.693213
        54        65     1        0.109324   300806.693213
        55        66     1        0.109324   300806.693213
        55        67     1        0.109324   300806.693213
        55        68     1        0.109324   300806.693213

[ angles ]
;       ai        aj        ak funct           theta             cth
         1         3         4     1      117.604599      836.136929
         1         3         8     1      118.716393      700.057207
         1         7         6     1      123.927170      646.560665
         1         7        28     1      119.162331      420.173616
         1        11        10     1      119.305099      502.704446
         1        11        31     1      120.080612      423.198263
         2        10         9     1      118.484268      401.883715
         2        10        11     1      120.030373      332.971538
         3         1         7     1      117.579063      730.903736
         3         1        11     1      120.011391      758.009080
         3         4         5     1      119.373573      647.902257
         3         4        27     1      121.323914      414.498855
         3         8         9     1      120.778320      579.878421
         3         8        29     1      119.274414      438.982591
         4         3         8     1      123.413841      406.042848
         4         5         6     1      123.291603      608.789429
         4         5        12     1      119.351074      477.694710
         5         4        27     1      119.131180      397.555239
         5         6         7     1      118.185059      636.283000
         5        12        13     1      114.090591      485.654340
         5        12        15     1      121.420792      637.794031
         6         5        12     1      117.077499      529.654556
         6         7        28     1      116.686401      412.222477
         7         1        11     1      122.364029      435.296469
         8         9        10     1      119.594872      626.659979
         8         9        30     1      121.068771      424.444953
         9         8        29     1      119.804787      438.211019
         9        10        11     1      121.491516      632.631513
        10         9        30     1      119.509254      438.690766
        10        11        31     1      120.576172      425.192424
        12        13        14     1      123.415756      526.135957
        12        13        32     1      116.006653      436.952199
        13        12        15     1      124.614136      610.332317
        13        14        16     1      111.199486      546.756279
        13        14        20     1      111.641403      630.828721
        13        14        33     1      106.300758      528.414984
        14        13        32     1      119.080872      373.257477
        14        16        17     1      110.945633      562.777432
        14        16        21     1      111.214767      547.481597
        14        16        69     1      107.753700      470.405302
        14        20        19     1      111.593033      623.894438
        14        20        61     1      108.978394      496.170713
        14        20        62     1      108.978394      496.170713
        16        14        20     1      110.866531      553.866130
        16        14        33     1      107.717125      472.279374
        16        17        18     1      111.939430      596.757301
        16        17        56     1      109.082336      493.142969
        16        17        57     1      109.082336      493.142969
        16        21        22     1      123.281532      523.533821
        16        21        34     1      117.985329      388.342599
        17        16        21     1      111.416893      612.846063
        17        16        69     1      108.673912      471.627763
        17        18        19     1      110.560959      569.917990
        17        18        51     1      110.802452      642.130488
        17        18        58     1      107.640671      495.211858
        18        17        56     1      109.789185      465.155383
        18        17        57     1      109.789185      465.155383
        18        19        20     1      111.603378      627.166571
        18        19        59     1      109.459435      468.787845
        18        19        60     1      109.459435      468.787845
        18        51        52     1      120.367775      453.866799
        18        51        53     1      118.348633      449.080890
        19        18        51     1      111.026161      653.509377
        19        18        58     1      107.798851      493.236244
        19        20        61     1      109.998474      502.411408
        19        20        62     1      109.998474      502.411408
        20        14        33     1      108.850830      471.125959
        20        19        59     1      109.708351      513.116564
        20        19        60     1      109.708351      513.116564
        21        16        69     1      106.369919      527.599138
        21        22        23     1      114.245560      430.111414
        21        22        24     1      124.890869      615.174089
        22        21        34     1      117.270615      420.964947
        22        23        25     1      124.340652      359.309363
        22        23        26     1      120.844772      468.365589
        23        22        24     1      120.964073      537.680773
        23        25        35     1      111.406593      328.705787
        23        26        36     1       88.551132      167.360000
        25        23        26     1      114.891418      167.360000
        25        35        36     1      115.272217      312.892188
        25        35        40     1      122.848999      461.667684
        26        36        35     1      110.263878      167.360000
        26        36        37     1      125.788002      401.332369
        35        36        37     1      123.996292      562.620314
        35        40        39     1      109.429955      644.587349
        35        40        46     1      109.759384      484.571854
        35        40        47     1      109.759384      484.571854
        36        35        40     1      121.676254      406.530862
        36        37        38     1      110.200546      563.933816
        36        37        42     1      110.205734      462.983196
        36        37        43     1      110.205734      462.983196
        37        38        39     1      111.045578      613.756014
        37        38        41     1      111.203835      630.245325
        38        37        42     1      109.551048      459.134690
        38        37        43     1      109.551048      459.134690
        38        39        40     1      112.270889      625.644432
        38        39        44     1      109.041969      476.770682
        38        39        45     1      109.041969      476.770682
        38        41        48     1      110.858498      481.423224
        38        41        49     1      110.858498      481.423224
        38        41        50     1      110.858498      481.423224
        39        38        41     1      112.192528      649.121399
        39        40        46     1      110.261795      502.853519
        39        40        47     1      110.261795      502.853519
        40        39        44     1      109.631447      493.664916
        40        39        45     1      109.631447      493.664916
        42        37        43     1      106.585083      354.341693
        44        39        45     1      107.114723      348.812845
        46        40        47     1      106.901878      363.316136
        48        41        49     1      108.062943      347.504005
        48        41        50     1      108.062943      347.504005
        49        41        50     1      108.062943      347.504005
        51        18        58     1      108.212730      515.178845
        51        53        54     1      122.129654      505.902714
        51        53        55     1      122.129654      505.902714
        52        51        53     1      121.081711      636.267423
        53        54        63     1      110.326584      477.859265
        53        54        64     1      110.326584      477.859265
        53        54        65     1      110.326584      477.859265
        53        55        66     1      110.326584      477.859265
        53        55        67     1      110.326584      477.859265
        53        55        68     1      110.326584      477.859265
        54        53        55     1      114.947632      573.331217
        56        17        57     1      107.084274      355.159487
        59        19        60     1      106.645180      359.821255
        61        20        62     1      106.839844      356.387024
        63        54        64     1      108.724693      349.793087
        63        54        65     1      108.724693      349.793087
        64        54        65     1      108.724709      349.793087
        66        55        67     1      108.724709      349.793087
        66        55        68     1      108.724709      349.793087
        67        55        68     1      108.724709      349.793087

[ dihedrals ] ; propers for gromacs 4.5 or higher, use funct 9
;       ai        aj        ak        al funct           phase               k        pn
         1         3         4         5     9        0.000000        0.034284         1
         1         3         4         5     9      180.000000       16.159558         2
         1         3         4         5     9        0.000000       -1.296685         3
         1         3         4         5     9      180.000000       -0.323253         4
         1         3         4        27     9        0.000000       -0.118680         1
         1         3         4        27     9      180.000000       12.882500         2
         1         3         4        27     9        0.000000       -0.163119         3
         1         3         4        27     9      180.000000        0.036234         4
         1         3         8         9     9        0.000000       -0.134171         1
         1         3         8         9     9      180.000000       16.534172         2
         1         3         8         9     9        0.000000       -1.012478         3
         1         3         8         9     9      180.000000       -0.281396         4
         1         3         8        29     9        0.000000       -0.138950         1
         1         3         8        29     9      180.000000       12.462319         2
         1         3         8        29     9        0.000000       -0.159741         3
         1         3         8        29     9      180.000000        0.018834         4
         1         7         6         5     9        0.000000        0.004156         1
         1         7         6         5     9      180.000000       27.160047         2
         1         7         6         5     9        0.000000       -0.641622         3
         1         7         6         5     9      180.000000       -0.331697         4
         1        11        10         2     9        0.000000        0.202603         1
         1        11        10         2     9      180.000000       22.032273         2
         1        11        10         2     9        0.000000        0.264002         3
         1        11        10         2     9      180.000000       -0.987652         4
         1        11        10         9     9        0.000000       -0.108332         1
         1        11        10         9     9      180.000000       19.362212         2
         1        11        10         9     9        0.000000       -1.295336         3
         1        11        10         9     9      180.000000       -0.474413         4
         2        10         9         8     9        0.000000        0.255058         1
         2        10         9         8     9      180.000000       16.410325         2
         2        10         9         8     9        0.000000        0.188593         3
         2        10         9         8     9      180.000000       -0.417110         4
         2        10         9        30     9        0.000000        0.149281         1
         2        10         9        30     9      180.000000       12.242871         2
         2        10         9        30     9        0.000000       -0.155896         3
         2        10         9        30     9      180.000000        0.221176         4
         2        10        11        31     9        0.000000        0.078150         1
         2        10        11        31     9      180.000000       14.468781         2
         2        10        11        31     9        0.000000       -0.048737         3
         2        10        11        31     9      180.000000        0.279693         4
         3         1         7         6     9        0.000000       -0.234372         1
         3         1         7         6     9      180.000000       13.373315         2
         3         1         7         6     9        0.000000       -0.513161         3
         3         1         7         6     9      180.000000       -0.313727         4
         3         1         7        28     9        0.000000        0.100161         1
         3         1         7        28     9      180.000000       11.736645         2
         3         1         7        28     9        0.000000       -0.145659         3
         3         1         7        28     9      180.000000       -0.075311         4
         3         1        11        10     9        0.000000       -0.273212         1
         3         1        11        10     9      180.000000       16.317628         2
         3         1        11        10     9        0.000000       -1.011471         3
         3         1        11        10     9      180.000000       -0.301249         4
         3         1        11        31     9        0.000000       -0.212905         1
         3         1        11        31     9      180.000000       12.135576         2
         3         1        11        31     9        0.000000       -0.306318         3
         3         1        11        31     9      180.000000        0.032163         4
         3         4         5         6     9        0.000000       -0.197415         1
         3         4         5         6     9      180.000000       18.916949         2
         3         4         5         6     9        0.000000       -1.003481         3
         3         4         5         6     9      180.000000       -0.494167         4
         3         4         5        12     9        0.000000        0.314973         1
         3         4         5        12     9      180.000000       16.065217         2
         3         4         5        12     9        0.000000        0.209392         3
         3         4         5        12     9      180.000000       -0.666500         4
         3         8         9        10     9        0.000000       -0.118839         1
         3         8         9        10     9      180.000000       20.509748         2
         3         8         9        10     9        0.000000       -1.495574         3
         3         8         9        10     9      180.000000       -0.444670         4
         3         8         9        30     9        0.000000        0.004674         1
         3         8         9        30     9      180.000000       16.479873         2
         3         8         9        30     9        0.000000       -0.558310         3
         3         8         9        30     9      180.000000        0.004842         4
         4         3         1         7     9        0.000000       -0.309396         1
         4         3         1         7     9      180.000000       10.480990         2
         4         3         1         7     9        0.000000       -1.203079         3
         4         3         1         7     9      180.000000       -0.106782         4
         4         3         1        11     9        0.000000        0.122425         1
         4         3         1        11     9      180.000000       11.337987         2
         4         3         1        11     9        0.000000       -1.129565         3
         4         3         1        11     9      180.000000       -0.208932         4
         4         3         8         9     9        0.000000       -0.365028         1
         4         3         8         9     9      180.000000       12.870546         2
         4         3         8         9     9        0.000000       -0.648262         3
         4         3         8         9     9      180.000000       -0.173984         4
         4         3         8        29     9        0.000000       -0.225503         1
         4         3         8        29     9      180.000000       11.134669         2
         4         3         8        29     9        0.000000       -0.329565         3
         4         3         8        29     9      180.000000        0.007407         4
         4         5         6         7     9        0.000000       -0.506290         1
         4         5         6         7     9      180.000000       17.336503         2
         4         5         6         7     9        0.000000       -0.342190         3
         4         5         6         7     9      180.000000       -0.088466         4
         4         5        12        13     9        0.000000       -1.365859         1
         4         5        12        13     9      180.000000        2.961029         2
         4         5        12        13     9        0.000000        0.583189         3
         4         5        12        13     9      180.000000       -0.393432         4
         4         5        12        15     9        0.000000        1.676691         1
         4         5        12        15     9      180.000000        3.383287         2
         4         5        12        15     9        0.000000       -0.920101         3
         4         5        12        15     9      180.000000        0.361175         4
         5         4         3         8     9        0.000000       -0.303083         1
         5         4         3         8     9      180.000000       13.108670         2
         5         4         3         8     9        0.000000       -0.795803         3
         5         4         3         8     9      180.000000       -0.100778         4
         5         6         7        28     9        0.000000        1.015996         1
         5         6         7        28     9      180.000000       25.973311         2
         5         6         7        28     9        0.000000        0.425406         3
         5         6         7        28     9      180.000000       -0.678153         4
         5        12        13        14     9        0.000000        1.376767         1
         5        12        13        14     9      180.000000       11.231490         2
         5        12        13        14     9        0.000000        0.905537         3
         5        12        13        14     9      180.000000       -0.548606         4
         5        12        13        32     9        0.000000       -0.301518         1
         5        12        13        32     9      180.000000        8.992388         2
         5        12        13        32     9        0.000000        0.482729         3
         5        12        13        32     9      180.000000       -0.011756         4
         6         5         4        27     9        0.000000        0.036749         1
         6         5         4        27     9      180.000000       14.085894         2
         6         5         4        27     9        0.000000       -0.323267         3
         6         5         4        27     9      180.000000       -0.033955         4
         6         5        12        13     9        0.000000        6.093459         1
         6         5        12        13     9      180.000000        2.023998         2
         6         5        12        13     9        0.000000        0.328830         3
         6         5        12        13     9      180.000000       -0.111023         4
         6         5        12        15     9        0.000000       -5.055443         1
         6         5        12        15     9      180.000000        3.979212         2
         6         5        12        15     9        0.000000        0.847668         3
         6         5        12        15     9      180.000000        0.133057         4
         6         7         1        11     9        0.000000       -0.570210         1
         6         7         1        11     9      180.000000       10.197763         2
         6         7         1        11     9        0.000000       -0.297894         3
         6         7         1        11     9      180.000000       -0.140976         4
         7         1         3         8     9        0.000000       -0.368225         1
         7         1         3         8     9      180.000000       10.487825         2
         7         1         3         8     9        0.000000       -1.148047         3
         7         1         3         8     9      180.000000       -0.084366         4
         7         1        11        10     9        0.000000       -0.132563         1
         7         1        11        10     9      180.000000       12.667601         2
         7         1        11        10     9        0.000000       -0.778413         3
         7         1        11        10     9      180.000000       -0.136762         4
         7         1        11        31     9        0.000000       -0.017419         1
         7         1        11        31     9      180.000000       10.719380         2
         7         1        11        31     9        0.000000       -0.444301         3
         7         1        11        31     9      180.000000        0.089341         4
         7         6         5        12     9        0.000000        1.036562         1
         7         6         5        12     9      180.000000       18.484737         2
         7         6         5        12     9        0.000000        1.360333         3
         7         6         5        12     9      180.000000       -0.850492         4
         8         3         1        11     9        0.000000       -0.050049         1
         8         3         1        11     9      180.000000       11.004900         2
         8         3         1        11     9        0.000000       -1.081979         3
         8         3         1        11     9      180.000000       -0.150453         4
         8         3         4        27     9        0.000000        0.024447         1
         8         3         4        27     9      180.000000       11.291247         2
         8         3         4        27     9        0.000000       -0.346203         3
         8         3         4        27     9      180.000000        0.083037         4
         8         9        10        11     9        0.000000       -0.038330         1
         8         9        10        11     9      180.000000       14.881792         2
         8         9        10        11     9        0.000000       -1.048212         3
         8         9        10        11     9      180.000000       -0.207379         4
         9        10        11        31     9        0.000000       -0.047415         1
         9        10        11        31     9      180.000000       14.575736         2
         9        10        11        31     9        0.000000       -0.440150         3
         9        10        11        31     9      180.000000        0.061626         4
        10         9         8        29     9        0.000000        0.028878         1
        10         9         8        29     9      180.000000       15.854022         2
        10         9         8        29     9        0.000000       -0.431181         3
        10         9         8        29     9      180.000000        0.164645         4
        11         1         7        28     9        0.000000       -0.475465         1
        11         1         7        28     9      180.000000        8.898232         2
        11         1         7        28     9        0.000000       -0.079582         3
        11         1         7        28     9      180.000000        0.093435         4
        11        10         9        30     9        0.000000       -0.121385         1
        11        10         9        30     9      180.000000       12.170797         2
        11        10         9        30     9        0.000000       -0.560647         3
        11        10         9        30     9      180.000000        0.087859         4
        12         5         4        27     9        0.000000        0.094535         1
        12         5         4        27     9      180.000000       12.414652         2
        12         5         4        27     9        0.000000       -0.194665         3
        12         5         4        27     9      180.000000        0.029292         4
        12        13        14        16     9        0.000000        1.510501         1
        12        13        14        16     9      180.000000       -0.575646         2
        12        13        14        16     9        0.000000        0.285377         3
        12        13        14        16     9      180.000000        0.234848         4
        12        13        14        20     9        0.000000        0.006926         1
        12        13        14        20     9      180.000000       -0.246124         2
        12        13        14        20     9        0.000000        0.277535         3
        12        13        14        20     9      180.000000        0.080507         4
        12        13        14        33     9        0.000000        0.022952         1
        12        13        14        33     9      180.000000        0.048802         2
        12        13        14        33     9        0.000000        0.110877         3
        12        13        14        33     9      180.000000        0.146711         4
        13        14        16        17     9        0.000000       -0.800788         1
        13        14        16        17     9      180.000000        0.175394         2
        13        14        16        17     9        0.000000        0.094707         3
        13        14        16        17     9      180.000000        0.262929         4
        13        14        16        21     9        0.000000        2.235653         1
        13        14        16        21     9      180.000000        0.063799         2
        13        14        16        21     9        0.000000       -0.488229         3
        13        14        16        21     9      180.000000        0.175482         4
        13        14        16        69     9        0.000000       -0.336036         1
        13        14        16        69     9      180.000000        0.044799         2
        13        14        16        69     9        0.000000        0.361850         3
        13        14        16        69     9      180.000000       -0.035820         4
        13        14        20        19     9        0.000000       -0.607827         1
        13        14        20        19     9      180.000000        0.764988         2
        13        14        20        19     9        0.000000        0.175642         3
        13        14        20        19     9      180.000000        0.119967         4
        13        14        20        61     9        0.000000        0.085884         1
        13        14        20        61     9      180.000000        0.095657         2
        13        14        20        61     9        0.000000        0.374753         3
        13        14        20        61     9      180.000000       -0.093351         4
        13        14        20        62     9        0.000000        0.085884         1
        13        14        20        62     9      180.000000        0.095657         2
        13        14        20        62     9        0.000000        0.374753         3
        13        14        20        62     9      180.000000       -0.093351         4
        14        13        12        15     9        0.000000       -0.145760         1
        14        13        12        15     9      180.000000       11.307905         2
        14        13        12        15     9        0.000000        0.299728         3
        14        13        12        15     9      180.000000       -1.354490         4
        14        16        17        18     9        0.000000        3.481329         1
        14        16        17        18     9      180.000000       -1.774228         2
        14        16        17        18     9        0.000000       -0.106475         3
        14        16        17        18     9      180.000000        0.001314         4
        14        16        17        56     9        0.000000       -0.108875         1
        14        16        17        56     9      180.000000        0.059970         2
        14        16        17        56     9        0.000000        0.166375         3
        14        16        17        56     9      180.000000        0.051087         4
        14        16        17        57     9        0.000000       -0.108875         1
        14        16        17        57     9      180.000000        0.059970         2
        14        16        17        57     9        0.000000        0.166375         3
        14        16        17        57     9      180.000000        0.051087         4
        14        16        21        22     9        0.000000        1.021618         1
        14        16        21        22     9      180.000000       -0.442705         2
        14        16        21        22     9        0.000000        0.338836         3
        14        16        21        22     9      180.000000        0.179329         4
        14        16        21        34     9        0.000000        0.563232         1
        14        16        21        34     9      180.000000       -1.108165         2
        14        16        21        34     9        0.000000        0.539615         3
        14        16        21        34     9      180.000000        0.016633         4
        14        20        19        18     9        0.000000        1.313110         1
        14        20        19        18     9      180.000000       -1.620582         2
        14        20        19        18     9        0.000000        0.188376         3
        14        20        19        18     9      180.000000        0.078233         4
        14        20        19        59     9        0.000000       -0.097913         1
        14        20        19        59     9      180.000000        0.068759         2
        14        20        19        59     9        0.000000        0.235386         3
        14        20        19        59     9      180.000000        0.022805         4
        14        20        19        60     9        0.000000       -0.097913         1
        14        20        19        60     9      180.000000        0.068759         2
        14        20        19        60     9        0.000000        0.235386         3
        14        20        19        60     9      180.000000        0.022805         4
        15        12        13        32     9        0.000000        0.147553         1
        15        12        13        32     9      180.000000       11.221044         2
        15        12        13        32     9        0.000000       -0.082068         3
        15        12        13        32     9      180.000000        0.139100         4
        16        14        13        32     9        0.000000        0.279192         1
        16        14        13        32     9      180.000000       -1.196645         2
        16        14        13        32     9        0.000000        0.496537         3
        16        14        13        32     9      180.000000        0.003337         4
        16        14        20        19     9        0.000000        2.721663         1
        16        14        20        19     9      180.000000       -1.667669         2
        16        14        20        19     9        0.000000        0.039106         3
        16        14        20        19     9      180.000000        0.056051         4
        16        14        20        61     9        0.000000       -0.100389         1
        16        14        20        61     9      180.000000        0.063667         2
        16        14        20        61     9        0.000000        0.181974         3
        16        14        20        61     9      180.000000        0.054231         4
        16        14        20        62     9        0.000000       -0.100389         1
        16        14        20        62     9      180.000000        0.063667         2
        16        14        20        62     9        0.000000        0.181974         3
        16        14        20        62     9      180.000000        0.054231         4
        16        17        18        19     9        0.000000        2.167701         1
        16        17        18        19     9      180.000000       -2.095071         2
        16        17        18        19     9        0.000000        0.100990         3
        16        17        18        19     9      180.000000       -0.067359         4
        16        17        18        51     9        0.000000       -0.969890         1
        16        17        18        51     9      180.000000       -0.492010         2
        16        17        18        51     9        0.000000        0.043330         3
        16        17        18        51     9      180.000000        0.044241         4
        16        17        18        58     9        0.000000       -0.731592         1
        16        17        18        58     9      180.000000        0.097424         2
        16        17        18        58     9        0.000000        0.165659         3
        16        17        18        58     9      180.000000        0.052140         4
        16        21        22        23     9        0.000000        1.551351         1
        16        21        22        23     9      180.000000       10.806241         2
        16        21        22        23     9        0.000000        0.659059         3
        16        21        22        23     9      180.000000       -0.282031         4
        16        21        22        24     9        0.000000       -0.687196         1
        16        21        22        24     9      180.000000       10.163927         2
        16        21        22        24     9        0.000000        0.483358         3
        16        21        22        24     9      180.000000       -1.334168         4
        17        16        14        20     9        0.000000        3.511478         1
        17        16        14        20     9      180.000000       -1.686692         2
        17        16        14        20     9        0.000000        0.073162         3
        17        16        14        20     9      180.000000       -0.001619         4
        17        16        14        33     9        0.000000       -0.372060         1
        17        16        14        33     9      180.000000        0.082737         2
        17        16        14        33     9        0.000000        0.302181         3
        17        16        14        33     9      180.000000        0.053142         4
        17        16        21        22     9        0.000000       -0.005175         1
        17        16        21        22     9      180.000000       -0.401672         2
        17        16        21        22     9        0.000000        0.370215         3
        17        16        21        22     9      180.000000        0.053218         4
        17        16        21        34     9        0.000000       -0.136586         1
        17        16        21        34     9      180.000000       -0.353037         2
        17        16        21        34     9        0.000000        0.351756         3
        17        16        21        34     9      180.000000       -0.038850         4
        17        18        19        20     9        0.000000        0.883010         1
        17        18        19        20     9      180.000000       -1.399872         2
        17        18        19        20     9        0.000000        0.314248         3
        17        18        19        20     9      180.000000       -0.050797         4
        17        18        19        59     9        0.000000       -0.056826         1
        17        18        19        59     9      180.000000        0.050149         2
        17        18        19        59     9        0.000000        0.270717         3
        17        18        19        59     9      180.000000        0.019384         4
        17        18        19        60     9        0.000000       -0.056826         1
        17        18        19        60     9      180.000000        0.050149         2
        17        18        19        60     9        0.000000        0.270717         3
        17        18        19        60     9      180.000000        0.019384         4
        17        18        51        52     9        0.000000       -0.455386         1
        17        18        51        52     9      180.000000        0.737900         2
        17        18        51        52     9        0.000000        0.287526         3
        17        18        51        52     9      180.000000        0.250951         4
        17        18        51        53     9        0.000000        0.270994         1
        17        18        51        53     9      180.000000        1.080078         2
        17        18        51        53     9        0.000000       -0.027563         3
        17        18        51        53     9      180.000000        0.001527         4
        18        17        16        21     9        0.000000       -0.378319         1
        18        17        16        21     9      180.000000        0.218820         2
        18        17        16        21     9        0.000000        0.056326         3
        18        17        16        21     9      180.000000        0.226509         4
        18        17        16        69     9        0.000000       -0.669048         1
        18        17        16        69     9      180.000000        0.139249         2
        18        17        16        69     9        0.000000        0.154171         3
        18        17        16        69     9      180.000000        0.076395         4
        18        19        20        61     9        0.000000       -0.080258         1
        18        19        20        61     9      180.000000        0.083233         2
        18        19        20        61     9        0.000000        0.213417         3
        18        19        20        61     9      180.000000        0.012387         4
        18        19        20        62     9        0.000000       -0.080258         1
        18        19        20        62     9      180.000000        0.083233         2
        18        19        20        62     9        0.000000        0.213417         3
        18        19        20        62     9      180.000000        0.012387         4
        18        51        53        54     9        0.000000        7.685850         1
        18        51        53        54     9      180.000000       10.413246         2
        18        51        53        54     9        0.000000        0.340038         3
        18        51        53        54     9      180.000000       -0.442447         4
        18        51        53        55     9        0.000000        7.685850         1
        18        51        53        55     9      180.000000       10.413246         2
        18        51        53        55     9        0.000000        0.340038         3
        18        51        53        55     9      180.000000       -0.442447         4
        19        18        17        56     9        0.000000       -0.052172         1
        19        18        17        56     9      180.000000        0.058083         2
        19        18        17        56     9        0.000000        0.229959         3
        19        18        17        56     9      180.000000        0.057798         4
        19        18        17        57     9        0.000000       -0.052172         1
        19        18        17        57     9      180.000000        0.058083         2
        19        18        17        57     9        0.000000        0.229959         3
        19        18        17        57     9      180.000000        0.057798         4
        19        18        51        52     9        0.000000       -0.698289         1
        19        18        51        52     9      180.000000        0.744054         2
        19        18        51        52     9        0.000000        0.336890         3
        19        18        51        52     9      180.000000        0.225666         4
        19        18        51        53     9        0.000000        0.291846         1
        19        18        51        53     9      180.000000        1.098654         2
        19        18        51        53     9        0.000000        0.042828         3
        19        18        51        53     9      180.000000       -0.012816         4
        19        20        14        33     9        0.000000       -0.429901         1
        19        20        14        33     9      180.000000        0.166353         2
        19        20        14        33     9        0.000000        0.246487         3
        19        20        14        33     9      180.000000        0.022031         4
        20        14        13        32     9        0.000000        0.033601         1
        20        14        13        32     9      180.000000       -0.080873         2
        20        14        13        32     9        0.000000        0.304330         3
        20        14        13        32     9      180.000000       -0.082230         4
        20        14        16        21     9        0.000000       -0.422691         1
        20        14        16        21     9      180.000000        0.246869         2
        20        14        16        21     9        0.000000        0.137211         3
        20        14        16        21     9      180.000000        0.209697         4
        20        14        16        69     9        0.000000       -0.374629         1
        20        14        16        69     9      180.000000        0.114271         2
        20        14        16        69     9        0.000000        0.315420         3
        20        14        16        69     9      180.000000        0.046303         4
        20        19        18        51     9        0.000000       -1.205837         1
        20        19        18        51     9      180.000000       -0.024594         2
        20        19        18        51     9        0.000000        0.127041         3
        20        19        18        51     9      180.000000        0.096010         4
        20        19        18        58     9        0.000000       -0.470892         1
        20        19        18        58     9      180.000000        0.118851         2
        20        19        18        58     9        0.000000        0.267874         3
        20        19        18        58     9      180.000000        0.031479         4
        21        16        14        33     9        0.000000       -0.394324         1
        21        16        14        33     9      180.000000        0.029196         2
        21        16        14        33     9        0.000000        0.348483         3
        21        16        14        33     9      180.000000       -0.012571         4
        21        16        17        56     9        0.000000        0.122902         1
        21        16        17        56     9      180.000000        0.128407         2
        21        16        17        56     9        0.000000        0.386720         3
        21        16        17        56     9      180.000000       -0.072984         4
        21        16        17        57     9        0.000000        0.122902         1
        21        16        17        57     9      180.000000        0.128407         2
        21        16        17        57     9        0.000000        0.386720         3
        21        16        17        57     9      180.000000       -0.072984         4
        21        22        23        25     9        0.000000        2.923749         1
        21        22        23        25     9      180.000000        2.022095         2
        21        22        23        25     9        0.000000        0.151149         3
        21        22        23        25     9      180.000000       -0.373995         4
        21        22        23        26     9        0.000000       -0.304414         1
        21        22        23        26     9      180.000000        3.200684         2
        21        22        23        26     9        0.000000        0.463910         3
        21        22        23        26     9      180.000000       -0.514292         4
        22        21        16        69     9        0.000000        0.020172         1
        22        21        16        69     9      180.000000        0.144925         2
        22        21        16        69     9        0.000000        0.214736         3
        22        21        16        69     9      180.000000        0.179789         4
        22        23        25        35     9        0.000000        0.509539         1
        22        23        25        35     9      180.000000       28.889665         2
        22        23        25        35     9        0.000000        0.564950         3
        22        23        25        35     9      180.000000       -0.961131         4
        22        23        26        36     9        0.000000       -1.127037         1
        22        23        26        36     9      180.000000       15.581777         2
        22        23        26        36     9        0.000000       -0.036420         3
        22        23        26        36     9      180.000000       -0.602861         4
        23        22        21        34     9        0.000000       -0.415752         1
        23        22        21        34     9      180.000000        9.010384         2
        23        22        21        34     9        0.000000        0.175298         3
        23        22        21        34     9      180.000000       -0.065606         4
        23        25        35        36     9        0.000000       -0.228535         1
        23        25        35        36     9      180.000000       27.756785         2
        23        25        35        36     9        0.000000       -2.863850         3
        23        25        35        36     9      180.000000       -0.158646         4
        23        25        35        40     9        0.000000        0.109642         1
        23        25        35        40     9      180.000000       22.524852         2
        23        25        35        40     9        0.000000        0.728535         3
        23        25        35        40     9      180.000000       -0.420500         4
        23        26        36        35     9        0.000000        0.019507         1
        23        26        36        35     9      180.000000       29.322726         2
        23        26        36        35     9        0.000000       -6.425576         3
        23        26        36        35     9      180.000000       -0.474428         4
        23        26        36        37     9        0.000000        0.448650         1
        23        26        36        37     9      180.000000       11.835073         2
        23        26        36        37     9        0.000000        0.424426         3
        23        26        36        37     9      180.000000       -0.134990         4
        24        22        21        34     9        0.000000       -0.005332         1
        24        22        21        34     9      180.000000       10.730372         2
        24        22        21        34     9        0.000000       -0.060300         3
        24        22        21        34     9      180.000000       -0.147584         4
        24        22        23        25     9        0.000000       -1.392140         1
        24        22        23        25     9      180.000000        3.582888         2
        24        22        23        25     9        0.000000        0.461599         3
        24        22        23        25     9      180.000000        0.214010         4
        24        22        23        26     9        0.000000        0.210149         1
        24        22        23        26     9      180.000000        4.370762         2
        24        22        23        26     9        0.000000       -0.343613         3
        24        22        23        26     9      180.000000        0.218765         4
        25        23        26        36     9        0.000000       -0.590193         1
        25        23        26        36     9      180.000000       31.322398         2
        25        23        26        36     9        0.000000       -5.851399         3
        25        23        26        36     9      180.000000       -0.585767         4
        25        35        36        26     9        0.000000       -0.800174         1
        25        35        36        26     9      180.000000       28.383673         2
        25        35        36        26     9        0.000000       -5.049933         3
        25        35        36        26     9      180.000000       -1.030530         4
        25        35        36        37     9        0.000000        0.006237         1
        25        35        36        37     9      180.000000       19.786124         2
        25        35        36        37     9        0.000000       -0.767005         3
        25        35        36        37     9      180.000000       -1.000863         4
        25        35        40        39     9        0.000000       -1.761287         1
        25        35        40        39     9      180.000000       -0.518566         2
        25        35        40        39     9        0.000000        0.250165         3
        25        35        40        39     9      180.000000        0.137553         4
        25        35        40        46     9        0.000000        0.061059         1
        25        35        40        46     9      180.000000        0.031081         2
        25        35        40        46     9        0.000000        0.254497         3
        25        35        40        46     9      180.000000       -0.033807         4
        25        35        40        47     9        0.000000        0.061059         1
        25        35        40        47     9      180.000000        0.031081         2
        25        35        40        47     9        0.000000        0.254497         3
        25        35        40        47     9      180.000000       -0.033807         4
        26        23        25        35     9        0.000000       -0.414856         1
        26        23        25        35     9      180.000000       36.017356         2
        26        23        25        35     9        0.000000       -4.165866         3
        26        23        25        35     9      180.000000        0.025250         4
        26        36        35        40     9        0.000000        0.102614         1
        26        36        35        40     9      180.000000       18.114968         2
        26        36        35        40     9        0.000000       -0.791874         3
        26        36        35        40     9      180.000000       -0.971119         4
        26        36        37        38     9        0.000000       -3.606837         1
        26        36        37        38     9      180.000000       -0.362514         2
        26        36        37        38     9        0.000000        0.387711         3
        26        36        37        38     9      180.000000        0.164191         4
        26        36        37        42     9        0.000000        0.050382         1
        26        36        37        42     9      180.000000        0.088073         2
        26        36        37        42     9        0.000000        0.411892         3
        26        36        37        42     9      180.000000       -0.037587         4
        26        36        37        43     9        0.000000        0.050382         1
        26        36        37        43     9      180.000000        0.088073         2
        26        36        37        43     9        0.000000        0.411892         3
        26        36        37        43     9      180.000000       -0.037587         4
        29         8         9        30     9        0.000000       -0.124104         1
        29         8         9        30     9      180.000000       12.700895         2
        29         8         9        30     9        0.000000       -0.684771         3
        29         8         9        30     9      180.000000        0.323385         4
        32        13        14        33     9        0.000000       -0.723833         1
        32        13        14        33     9      180.000000        0.135206         2
        32        13        14        33     9        0.000000        0.510990         3
        32        13        14        33     9      180.000000        0.187561         4
        33        14        16        69     9        0.000000        0.159481         1
        33        14        16        69     9      180.000000       -0.169694         2
        33        14        16        69     9        0.000000        0.419207         3
        33        14        16        69     9      180.000000       -0.050949         4
        33        14        20        61     9        0.000000        0.033058         1
        33        14        20        61     9      180.000000        0.013144         2
        33        14        20        61     9        0.000000        0.371389         3
        33        14        20        61     9      180.000000        0.011796         4
        33        14        20        62     9        0.000000        0.033058         1
        33        14        20        62     9      180.000000        0.013144         2
        33        14        20        62     9        0.000000        0.371389         3
        33        14        20        62     9      180.000000        0.011796         4
        34        21        16        69     9        0.000000       -0.794086         1
        34        21        16        69     9      180.000000        0.147692         2
        34        21        16        69     9        0.000000        0.562941         3
        34        21        16        69     9      180.000000        0.176200         4
        35        36        37        38     9        0.000000       -3.311658         1
        35        36        37        38     9      180.000000        0.893056         2
        35        36        37        38     9        0.000000       -0.312861         3
        35        36        37        38     9      180.000000        0.089561         4
        35        36        37        42     9        0.000000       -0.010515         1
        35        36        37        42     9      180.000000       -0.166834         2
        35        36        37        42     9        0.000000       -0.357655         3
        35        36        37        42     9      180.000000       -0.002483         4
        35        36        37        43     9        0.000000       -0.010515         1
        35        36        37        43     9      180.000000       -0.166834         2
        35        36        37        43     9        0.000000       -0.357655         3
        35        36        37        43     9      180.000000       -0.002483         4
        35        40        39        38     9        0.000000       -1.384129         1
        35        40        39        38     9      180.000000       -0.653292         2
        35        40        39        38     9        0.000000        0.502380         3
        35        40        39        38     9      180.000000       -0.119672         4
        35        40        39        44     9        0.000000        0.056682         1
        35        40        39        44     9      180.000000        0.029063         2
        35        40        39        44     9        0.000000        0.464816         3
        35        40        39        44     9      180.000000        0.029460         4
        35        40        39        45     9        0.000000        0.056682         1
        35        40        39        45     9      180.000000        0.029063         2
        35        40        39        45     9        0.000000        0.464816         3
        35        40        39        45     9      180.000000        0.029460         4
        36        35        40        39     9        0.000000       -0.581697         1
        36        35        40        39     9      180.000000       -0.178850         2
        36        35        40        39     9        0.000000       -0.539812         3
        36        35        40        39     9      180.000000        0.228285         4
        36        35        40        46     9        0.000000        0.001137         1
        36        35        40        46     9      180.000000       -0.132140         2
        36        35        40        46     9        0.000000       -0.440824         3
        36        35        40        46     9      180.000000        0.030108         4
        36        35        40        47     9        0.000000        0.001137         1
        36        35        40        47     9      180.000000       -0.132140         2
        36        35        40        47     9        0.000000       -0.440824         3
        36        35        40        47     9      180.000000        0.030108         4
        36        37        38        39     9        0.000000        1.757084         1
        36        37        38        39     9      180.000000       -1.262017         2
        36        37        38        39     9        0.000000        0.610032         3
        36        37        38        39     9      180.000000       -0.013762         4
        36        37        38        41     9        0.000000        0.088848         1
        36        37        38        41     9      180.000000        0.098174         2
        36        37        38        41     9        0.000000        0.957104         3
        36        37        38        41     9      180.000000        0.111039         4
        37        36        35        40     9        0.000000        0.173945         1
        37        36        35        40     9      180.000000       16.682661         2
        37        36        35        40     9        0.000000       -0.531422         3
        37        36        35        40     9      180.000000       -0.483502         4
        37        38        39        40     9        0.000000        2.929372         1
        37        38        39        40     9      180.000000       -2.275396         2
        37        38        39        40     9        0.000000        0.136332         3
        37        38        39        40     9      180.000000        0.386228         4
        37        38        39        44     9        0.000000       -0.123649         1
        37        38        39        44     9      180.000000        0.088231         2
        37        38        39        44     9        0.000000        0.293555         3
        37        38        39        44     9      180.000000        0.009401         4
        37        38        39        45     9        0.000000       -0.123649         1
        37        38        39        45     9      180.000000        0.088231         2
        37        38        39        45     9        0.000000        0.293555         3
        37        38        39        45     9      180.000000        0.009401         4
        37        38        41        48     9        0.000000       -0.036256         1
        37        38        41        48     9      180.000000        0.018735         2
        37        38        41        48     9        0.000000        1.024067         3
        37        38        41        48     9      180.000000        0.001601         4
        37        38        41        49     9        0.000000       -0.036256         1
        37        38        41        49     9      180.000000        0.018735         2
        37        38        41        49     9        0.000000        1.024067         3
        37        38        41        49     9      180.000000        0.001601         4
        37        38        41        50     9        0.000000       -0.036256         1
        37        38        41        50     9      180.000000        0.018735         2
        37        38        41        50     9        0.000000        1.024067         3
        37        38        41        50     9      180.000000        0.001601         4
        38        39        40        46     9        0.000000       -0.054085         1
        38        39        40        46     9      180.000000        0.034526         2
        38        39        40        46     9        0.000000        0.373195         3
        38        39        40        46     9      180.000000        0.083514         4
        38        39        40        47     9        0.000000       -0.054085         1
        38        39        40        47     9      180.000000        0.034526         2
        38        39        40        47     9        0.000000        0.373195         3
        38        39        40        47     9      180.000000        0.083514         4
        39        38        37        42     9        0.000000       -0.029691         1
        39        38        37        42     9      180.000000        0.036400         2
        39        38        37        42     9        0.000000        0.631979         3
        39        38        37        42     9      180.000000        0.071457         4
        39        38        37        43     9        0.000000       -0.029691         1
        39        38        37        43     9      180.000000        0.036400         2
        39        38        37        43     9        0.000000        0.631979         3
        39        38        37        43     9      180.000000        0.071457         4
        39        38        41        48     9        0.000000       -0.014100         1
        39        38        41        48     9      180.000000        0.015343         2
        39        38        41        48     9        0.000000        0.884158         3
        39        38        41        48     9      180.000000        0.019132         4
        39        38        41        49     9        0.000000       -0.014100         1
        39        38        41        49     9      180.000000        0.015343         2
        39        38        41        49     9        0.000000        0.884158         3
        39        38        41        49     9      180.000000        0.019132         4
        39        38        41        50     9        0.000000       -0.014100         1
        39        38        41        50     9      180.000000        0.015343         2
        39        38        41        50     9        0.000000        0.884158         3
        39        38        41        50     9      180.000000        0.019132         4
        40        39        38        41     9        0.000000        1.698500         1
        40        39        38        41     9      180.000000       -0.487751         2
        40        39        38        41     9        0.000000        0.450767         3
        40        39        38        41     9      180.000000        0.246699         4
        41        38        37        42     9        0.000000        0.111988         1
        41        38        37        42     9      180.000000        0.004567         2
        41        38        37        42     9        0.000000        0.981665         3
        41        38        37        42     9      180.000000       -0.069874         4
        41        38        37        43     9        0.000000        0.111988         1
        41        38        37        43     9      180.000000        0.004567         2
        41        38        37        43     9        0.000000        0.981665         3
        41        38        37        43     9      180.000000       -0.069874         4
        41        38        39        44     9        0.000000       -0.115413         1
        41        38        39        44     9      180.000000       -0.101300         2
        41        38        39        44     9        0.000000        0.611434         3
        41        38        39        44     9      180.000000       -0.123227         4
        41        38        39        45     9        0.000000       -0.115413         1
        41        38        39        45     9      180.000000       -0.101300         2
        41        38        39        45     9        0.000000        0.611434         3
        41        38        39        45     9      180.000000       -0.123227         4
        44        39        40        46     9        0.000000       -0.014895         1
        44        39        40        46     9      180.000000       -0.022227         2
        44        39        40        46     9        0.000000        0.401862         3
        44        39        40        46     9      180.000000       -0.001746         4
        44        39        40        47     9        0.000000       -0.014895         1
        44        39        40        47     9      180.000000       -0.022227         2
        44        39        40        47     9        0.000000        0.401862         3
        44        39        40        47     9      180.000000       -0.001746         4
        45        39        40        46     9        0.000000       -0.014895         1
        45        39        40        46     9      180.000000       -0.022227         2
        45        39        40        46     9        0.000000        0.401862         3
        45        39        40        46     9      180.000000       -0.001746         4
        45        39        40        47     9        0.000000       -0.014895         1
        45        39        40        47     9      180.000000       -0.022227         2
        45        39        40        47     9        0.000000        0.401862         3
        45        39        40        47     9      180.000000       -0.001746         4
        51        18        17        56     9        0.000000        0.178565         1
        51        18        17        56     9      180.000000        0.124017         2
        51        18        17        56     9        0.000000        0.213224         3
        51        18        17        56     9      180.000000       -0.042705         4
        51        18        17        57     9        0.000000        0.178565         1
        51        18        17        57     9      180.000000        0.124017         2
        51        18        17        57     9        0.000000        0.213224         3
        51        18        17        57     9      180.000000       -0.042705         4
        51        18        19        59     9        0.000000        0.159078         1
        51        18        19        59     9      180.000000        0.098531         2
        51        18        19        59     9        0.000000        0.249228         3
        51        18        19        59     9      180.000000       -0.047820         4
        51        18        19        60     9        0.000000        0.159078         1
        51        18        19        60     9      180.000000        0.098531         2
        51        18        19        60     9        0.000000        0.249228         3
        51        18        19        60     9      180.000000       -0.047820         4
        51        53        54        63     9        0.000000       -0.008626         1
        51        53        54        63     9      180.000000        0.038862         2
        51        53        54        63     9        0.000000        0.235749         3
        51        53        54        63     9      180.000000        0.020475         4
        51        53        54        64     9        0.000000       -0.008626         1
        51        53        54        64     9      180.000000        0.038862         2
        51        53        54        64     9        0.000000        0.235749         3
        51        53        54        64     9      180.000000        0.020475         4
        51        53        54        65     9        0.000000       -0.008626         1
        51        53        54        65     9      180.000000        0.038862         2
        51        53        54        65     9        0.000000        0.235749         3
        51        53        54        65     9      180.000000        0.020475         4
        51        53        55        66     9        0.000000       -0.008626         1
        51        53        55        66     9      180.000000        0.038862         2
        51        53        55        66     9        0.000000        0.235749         3
        51        53        55        66     9      180.000000        0.020475         4
        51        53        55        67     9        0.000000       -0.008626         1
        51        53        55        67     9      180.000000        0.038862         2
        51        53        55        67     9        0.000000        0.235749         3
        51        53        55        67     9      180.000000        0.020475         4
        51        53        55        68     9        0.000000       -0.008626         1
        51        53        55        68     9      180.000000        0.038862         2
        51        53        55        68     9        0.000000        0.235749         3
        51        53        55        68     9      180.000000        0.020475         4
        52        51        18        58     9        0.000000        1.593583         1
        52        51        18        58     9      180.000000        0.703025         2
        52        51        18        58     9        0.000000        0.717740         3
        52        51        18        58     9      180.000000       -0.500486         4
        52        51        53        54     9        0.000000       -0.375518         1
        52        51        53        54     9      180.000000       13.044421         2
        52        51        53        54     9        0.000000       -1.547115         3
        52        51        53        54     9      180.000000       -0.087257         4
        52        51        53        55     9        0.000000       -0.375518         1
        52        51        53        55     9      180.000000       13.044421         2
        52        51        53        55     9        0.000000       -1.547115         3
        52        51        53        55     9      180.000000       -0.087257         4
        53        51        18        58     9        0.000000       -0.215324         1
        53        51        18        58     9      180.000000        0.004504         2
        53        51        18        58     9        0.000000       -0.151551         3
        53        51        18        58     9      180.000000       -0.047823         4
        54        53        55        66     9        0.000000       -0.024574         1
        54        53        55        66     9      180.000000        0.053683         2
        54        53        55        66     9        0.000000        1.208154         3
        54        53        55        66     9      180.000000        0.010416         4
        54        53        55        67     9        0.000000       -0.024574         1
        54        53        55        67     9      180.000000        0.053683         2
        54        53        55        67     9        0.000000        1.208154         3
        54        53        55        67     9      180.000000        0.010416         4
        54        53        55        68     9        0.000000       -0.024574         1
        54        53        55        68     9      180.000000        0.053683         2
        54        53        55        68     9        0.000000        1.208154         3
        54        53        55        68     9      180.000000        0.010416         4
        55        53        54        63     9        0.000000       -0.024574         1
        55        53        54        63     9      180.000000        0.053683         2
        55        53        54        63     9        0.000000        1.208154         3
        55        53        54        63     9      180.000000        0.010416         4
        55        53        54        64     9        0.000000       -0.024574         1
        55        53        54        64     9      180.000000        0.053683         2
        55        53        54        64     9        0.000000        1.208154         3
        55        53        54        64     9      180.000000        0.010416         4
        55        53        54        65     9        0.000000       -0.024574         1
        55        53        54        65     9      180.000000        0.053683         2
        55        53        54        65     9        0.000000        1.208154         3
        55        53        54        65     9      180.000000        0.010416         4
        56        17        16        69     9        0.000000        0.032620         1
        56        17        16        69     9      180.000000        0.014450         2
        56        17        16        69     9        0.000000        0.397221         3
        56        17        16        69     9      180.000000        0.013351         4
        56        17        18        58     9        0.000000        0.092902         1
        56        17        18        58     9      180.000000        0.093401         2
        56        17        18        58     9        0.000000        0.416253         3
        56        17        18        58     9      180.000000       -0.035407         4
        57        17        16        69     9        0.000000        0.032620         1
        57        17        16        69     9      180.000000        0.014450         2
        57        17        16        69     9        0.000000        0.397221         3
        57        17        16        69     9      180.000000        0.013351         4
        57        17        18        58     9        0.000000        0.092902         1
        57        17        18        58     9      180.000000        0.093401         2
        57        17        18        58     9        0.000000        0.416253         3
        57        17        18        58     9      180.000000       -0.035407         4
        58        18        19        59     9        0.000000        0.089169         1
        58        18        19        59     9      180.000000        0.058938         2
        58        18        19        59     9        0.000000        0.395713         3
        58        18        19        59     9      180.000000       -0.024133         4
        58        18        19        60     9        0.000000        0.089169         1
        58        18        19        60     9      180.000000        0.058938         2
        58        18        19        60     9        0.000000        0.395713         3
        58        18        19        60     9      180.000000       -0.024133         4
        59        19        20        61     9        0.000000        0.013546         1
        59        19        20        61     9      180.000000        0.010717         2
        59        19        20        61     9        0.000000        0.296412         3
        59        19        20        61     9      180.000000        0.043706         4
        59        19        20        62     9        0.000000        0.013546         1
        59        19        20        62     9      180.000000        0.010717         2
        59        19        20        62     9        0.000000        0.296412         3
        59        19        20        62     9      180.000000        0.043706         4
        60        19        20        61     9        0.000000        0.013546         1
        60        19        20        61     9      180.000000        0.010717         2
        60        19        20        61     9        0.000000        0.296412         3
        60        19        20        61     9      180.000000        0.043706         4
        60        19        20        62     9        0.000000        0.013546         1
        60        19        20        62     9      180.000000        0.010717         2
        60        19        20        62     9        0.000000        0.296412         3
        60        19        20        62     9      180.000000        0.043706         4

[ dihedrals ] ; impropers
;       ai        aj        ak        al funct           phase               k        pn
         7         1         6        28     4      180.000000        9.607917         2
         7         6        28         1     4      180.000000        9.607917         2
         7        28         1         6     4      180.000000        9.607917         2
        12         5        13        15     4      180.000000       24.971561         2
        12        13        15         5     4      180.000000       24.971561         2
        12        15         5        13     4      180.000000       24.971561         2
        22        21        23        24     4      180.000000       14.088156         2
        22        23        24        21     4      180.000000       14.088156         2
        22        24        21        23     4      180.000000       14.088156         2
        51        18        52        53     4      180.000000       15.867169         2
        51        52        53        18     4      180.000000       15.867169         2
        51        53        18        52     4      180.000000       15.867169         2

[ pairs ]
;       ai        aj funct
         1         2     1
         1         5     1
         1         9     1
         1        27     1
         1        29     1
         2         8     1
         2        30     1
         2        31     1
         3         6     1
         3        10     1
         3        12     1
         3        28     1
         3        30     1
         3        31     1
         4         7     1
         4         9     1
         4        11     1
         4        13     1
         4        15     1
         4        29     1
         5         8     1
         5        14     1
         5        28     1
         5        32     1
         6        11     1
         6        13     1
         6        15     1
         6        27     1
         7         8     1
         7        10     1
         7        12     1
         7        31     1
         8        11     1
         8        27     1
         9        31     1
        10        29     1
        11        28     1
        11        30     1
        12        16     1
        12        20     1
        12        27     1
        12        33     1
        13        17     1
        13        19     1
        13        21     1
        13        61     1
        13        62     1
        13        69     1
        14        15     1
        14        18     1
        14        22     1
        14        34     1
        14        56     1
        14        57     1
        14        59     1
        14        60     1
        15        32     1
        16        19     1
        16        23     1
        16        24     1
        16        32     1
        16        51     1
        16        58     1
        16        61     1
        16        62     1
        17        20     1
        17        22     1
        17        33     1
        17        34     1
        17        52     1
        17        53     1
        17        59     1
        17        60     1
        18        21     1
        18        54     1
        18        55     1
        18        61     1
        18        62     1
        18        69     1
        19        33     1
        19        52     1
        19        53     1
        19        56     1
        19        57     1
        20        21     1
        20        32     1
        20        51     1
        20        58     1
        20        69     1
        21        25     1
        21        26     1
        21        33     1
        21        56     1
        21        57     1
        22        35     1
        22        36     1
        22        69     1
        23        34     1
        23        37     1
        23        40     1
        24        25     1
        24        26     1
        24        34     1
        25        37     1
        25        39     1
        25        46     1
        25        47     1
        26        38     1
        26        40     1
        26        42     1
        26        43     1
        29        30     1
        32        33     1
        33        61     1
        33        62     1
        33        69     1
        34        69     1
        35        38     1
        35        42     1
        35        43     1
        35        44     1
        35        45     1
        36        39     1
        36        41     1
        36        46     1
        36        47     1
        37        40     1
        37        44     1
        37        45     1
        37        48     1
        37        49     1
        37        50     1
        38        46     1
        38        47     1
        39        42     1
        39        43     1
        39        48     1
        39        49     1
        39        50     1
        40        41     1
        41        42     1
        41        43     1
        41        44     1
        41        45     1
        44        46     1
        44        47     1
        45        46     1
        45        47     1
        51        56     1
        51        57     1
        51        59     1
        51        60     1
        51        63     1
        51        64     1
        51        65     1
        51        66     1
        51        67     1
        51        68     1
        52        54     1
        52        55     1
        52        58     1
        53        58     1
        54        66     1
        54        67     1
        54        68     1
        55        63     1
        55        64     1
        55        65     1
        56        58     1
        56        69     1
        57        58     1
        57        69     1
        58        59     1
        58        60     1
        59        61     1
        59        62     1
        60        61     1
        60        62     1
