; ITP file created by ByteFF-ML, 2025-12-06 08:06:12.947608

[ atomtypes ]
;name           bonded.type        at.num        mass        charge   ptype           sigma         epsilon
 c0bf                                   6      0.0000       0.00000       A     3.31482e-01     4.13084e-01
 cl1bf                                 17      0.0000       0.00000       A     3.46719e-01     1.10475e+00
 c2bf                                   6      0.0000       0.00000       A     3.31424e-01     4.11799e-01
 c3bf                                   6      0.0000       0.00000       A     3.31531e-01     4.13658e-01
 c4bf                                   6      0.0000       0.00000       A     3.31271e-01     4.12737e-01
 c5bf                                   6      0.0000       0.00000       A     3.31524e-01     4.12207e-01
 n6bf                                   7      0.0000       0.00000       A     3.38458e-01     3.92231e-01
 c7bf                                   6      0.0000       0.00000       A     3.31528e-01     4.13648e-01
 c8bf                                   6      0.0000       0.00000       A     3.31535e-01     4.12895e-01
 c9bf                                   6      0.0000       0.00000       A     3.31511e-01     4.12065e-01
 c10bf                                  6      0.0000       0.00000       A     3.31478e-01     4.12480e-01
 c11bf                                  6      0.0000       0.00000       A     3.31498e-01     4.14273e-01
 n12bf                                  7      0.0000       0.00000       A     3.26610e-01     4.89596e-01
 c13bf                                  6      0.0000       0.00000       A     3.39834e-01     4.47883e-01
 o14bf                                  8      0.0000       0.00000       A     3.04688e-01     6.10996e-01
 c15bf                                  6      0.0000       0.00000       A     3.39970e-01     4.49282e-01
 c16bf                                  6      0.0000       0.00000       A     3.39695e-01     4.50020e-01
 c17bf                                  6      0.0000       0.00000       A     3.39807e-01     4.51065e-01
 c18bf                                  6      0.0000       0.00000       A     3.39783e-01     4.50599e-01
 c19bf                                  6      0.0000       0.00000       A     3.39773e-01     4.51249e-01
 n20bf                                  7      0.0000       0.00000       A     3.26602e-01     4.88281e-01
 c21bf                                  6      0.0000       0.00000       A     3.31258e-01     4.13621e-01
 c22bf                                  6      0.0000       0.00000       A     3.31371e-01     4.12927e-01
 o23bf                                  8      0.0000       0.00000       A     3.04582e-01     6.10219e-01
 n24bf                                  7      0.0000       0.00000       A     3.38377e-01     3.93517e-01
 s25bf                                 16      0.0000       0.00000       A     3.53468e-01     1.17897e+00
 h26bf                                  1      0.0000       0.00000       A     2.62426e-01     6.65816e-02
 h27bf                                  1      0.0000       0.00000       A     2.62482e-01     6.71482e-02
 h28bf                                  1      0.0000       0.00000       A     2.62534e-01     6.73797e-02
 h29bf                                  1      0.0000       0.00000       A     2.62379e-01     6.73605e-02
 h30bf                                  1      0.0000       0.00000       A     1.10580e-01     4.10525e-02
 h31bf                                  1      0.0000       0.00000       A     2.42179e-01     8.63601e-02
 h32bf                                  1      0.0000       0.00000       A     1.10612e-01     4.02241e-02
 c33bf                                  6      0.0000       0.00000       A     3.31347e-01     4.13267e-01
 c34bf                                  6      0.0000       0.00000       A     3.31421e-01     4.13824e-01
 c35bf                                  6      0.0000       0.00000       A     3.39969e-01     4.50893e-01
 n36bf                                  7      0.0000       0.00000       A     3.36930e-01     3.57427e-01
 c37bf                                  6      0.0000       0.00000       A     3.39827e-01     4.51767e-01
 c38bf                                  6      0.0000       0.00000       A     3.39882e-01     4.51317e-01
 c39bf                                  6      0.0000       0.00000       A     3.39758e-01     4.50040e-01
 h40bf                                  1      0.0000       0.00000       A     2.42170e-01     8.71342e-02
 h41bf                                  1      0.0000       0.00000       A     2.42170e-01     8.71342e-02
 h42bf                                  1      0.0000       0.00000       A     2.42257e-01     8.79530e-02
 h43bf                                  1      0.0000       0.00000       A     2.42257e-01     8.79530e-02
 h44bf                                  1      0.0000       0.00000       A     2.59883e-01     8.84270e-02
 h45bf                                  1      0.0000       0.00000       A     2.59883e-01     8.84270e-02
 h46bf                                  1      0.0000       0.00000       A     2.41989e-01     8.72555e-02
 h47bf                                  1      0.0000       0.00000       A     2.41989e-01     8.72555e-02
 h48bf                                  1      0.0000       0.00000       A     2.41989e-01     8.72555e-02
 c49bf                                  6      0.0000       0.00000       A     3.31656e-01     4.11194e-01
 o50bf                                  8      0.0000       0.00000       A     3.04848e-01     6.12895e-01
 n51bf                                  7      0.0000       0.00000       A     3.18436e-01     6.83644e-01
 c52bf                                  6      0.0000       0.00000       A     3.39787e-01     4.50128e-01
 c53bf                                  6      0.0000       0.00000       A     3.39787e-01     4.50128e-01
 h54bf                                  1      0.0000       0.00000       A     2.59758e-01     8.65469e-02
 h55bf                                  1      0.0000       0.00000       A     2.59758e-01     8.65469e-02
 h56bf                                  1      0.0000       0.00000       A     2.59710e-01     8.69571e-02
 h57bf                                  1      0.0000       0.00000       A     2.59950e-01     8.71566e-02
 h58bf                                  1      0.0000       0.00000       A     2.59950e-01     8.71566e-02
 h59bf                                  1      0.0000       0.00000       A     2.59873e-01     8.66777e-02
 h60bf                                  1      0.0000       0.00000       A     2.59873e-01     8.66777e-02
 h61bf                                  1      0.0000       0.00000       A     2.42033e-01     8.76162e-02
 h62bf                                  1      0.0000       0.00000       A     2.42033e-01     8.76162e-02
 h63bf                                  1      0.0000       0.00000       A     2.42033e-01     8.76162e-02
 h64bf                                  1      0.0000       0.00000       A     2.42033e-01     8.76162e-02
 h65bf                                  1      0.0000       0.00000       A     2.42033e-01     8.76162e-02
 h66bf                                  1      0.0000       0.00000       A     2.42033e-01     8.76162e-02
 h67bf                                  1      0.0000       0.00000       A     2.42061e-01     8.64671e-02
 h68bf                                  1      0.0000       0.00000       A     2.53786e-01     6.71642e-02

[ moleculetype ]
;name             nrexcl
 5d                    3

[ atoms ]
;       nr            type      resi   res      atom      cgnr      charge          mass ; qtot
         1            c0bf         1   UNL        c0         1     0.28535       12.0110 ; qtot    0.285
         2           cl1bf         1   UNL       cl1         2    -0.20341       35.4530 ; qtot    0.082
         3            c2bf         1   UNL        c2         3    -0.09388       12.0110 ; qtot   -0.012
         4            c3bf         1   UNL        c3         4    -0.01241       12.0110 ; qtot   -0.024
         5            c4bf         1   UNL        c4         5    -0.20635       12.0110 ; qtot   -0.231
         6            c5bf         1   UNL        c5         6     0.38319       12.0110 ; qtot    0.152
         7            n6bf         1   UNL        n6         7    -0.65548       14.0070 ; qtot   -0.503
         8            c7bf         1   UNL        c7         8    -0.06918       12.0110 ; qtot   -0.572
         9            c8bf         1   UNL        c8         9    -0.10554       12.0110 ; qtot   -0.678
        10            c9bf         1   UNL        c9        10     0.13170       12.0110 ; qtot   -0.546
        11           c10bf         1   UNL       c10        11    -0.07256       12.0110 ; qtot   -0.619
        12           c11bf         1   UNL       c11        12     0.61738       12.0110 ; qtot   -0.001
        13           n12bf         1   UNL       n12        13    -0.49923       14.0070 ; qtot   -0.500
        14           c13bf         1   UNL       c13        14     0.09422       12.0110 ; qtot   -0.406
        15           o14bf         1   UNL       o14        15    -0.59843       15.9990 ; qtot   -1.005
        16           c15bf         1   UNL       c15        16     0.09822       12.0110 ; qtot   -0.906
        17           c16bf         1   UNL       c16        17    -0.07593       12.0110 ; qtot   -0.982
        18           c17bf         1   UNL       c17        18    -0.13491       12.0110 ; qtot   -1.117
        19           c18bf         1   UNL       c18        19    -0.06728       12.0110 ; qtot   -1.185
        20           c19bf         1   UNL       c19        20    -0.08796       12.0110 ; qtot   -1.272
        21           n20bf         1   UNL       n20        21    -0.49001       14.0070 ; qtot   -1.763
        22           c21bf         1   UNL       c21        22     0.53549       12.0110 ; qtot   -1.227
        23           c22bf         1   UNL       c22        23     0.38153       12.0110 ; qtot   -0.845
        24           o23bf         1   UNL       o23        24    -0.58023       15.9990 ; qtot   -1.426
        25           n24bf         1   UNL       n24        25    -0.61219       14.0070 ; qtot   -2.038
        26           s25bf         1   UNL       s25        26     0.02030       32.0670 ; qtot   -2.018
        27           h26bf         1   UNL       h26        27     0.13548        1.0080 ; qtot   -1.882
        28           h27bf         1   UNL       h27        28     0.12290        1.0080 ; qtot   -1.759
        29           h28bf         1   UNL       h28        29     0.13603        1.0080 ; qtot   -1.623
        30           h29bf         1   UNL       h29        30     0.15201        1.0080 ; qtot   -1.471
        31           h30bf         1   UNL       h30        31     0.32431        1.0080 ; qtot   -1.147
        32           h31bf         1   UNL       h31        32     0.07679        1.0080 ; qtot   -1.070
        33           h32bf         1   UNL       h32        33     0.34007        1.0080 ; qtot   -0.730
        34           c33bf         1   UNL       c33        34     0.28744       12.0110 ; qtot   -0.443
        35           c34bf         1   UNL       c34        35    -0.23576       12.0110 ; qtot   -0.678
        36           c35bf         1   UNL       c35        36     0.24225       12.0110 ; qtot   -0.436
        37           n36bf         1   UNL       n36        37    -0.71279       14.0070 ; qtot   -1.149
        38           c37bf         1   UNL       c37        38     0.15975       12.0110 ; qtot   -0.989
        39           c38bf         1   UNL       c38        39    -0.11333       12.0110 ; qtot   -1.102
        40           c39bf         1   UNL       c39        40     0.14641       12.0110 ; qtot   -0.956
        41           h40bf         1   UNL       h40        41     0.05577        1.0080 ; qtot   -0.900
        42           h41bf         1   UNL       h41        42     0.05577        1.0080 ; qtot   -0.845
        43           h42bf         1   UNL       h42        43     0.04433        1.0080 ; qtot   -0.800
        44           h43bf         1   UNL       h43        44     0.04433        1.0080 ; qtot   -0.756
        45           h44bf         1   UNL       h44        45     0.06561        1.0080 ; qtot   -0.690
        46           h45bf         1   UNL       h45        46     0.06561        1.0080 ; qtot   -0.625
        47           h46bf         1   UNL       h46        47     0.03413        1.0080 ; qtot   -0.590
        48           h47bf         1   UNL       h47        48     0.03413        1.0080 ; qtot   -0.556
        49           h48bf         1   UNL       h48        49     0.03413        1.0080 ; qtot   -0.522
        50           c49bf         1   UNL       c49        50     0.60518       12.0110 ; qtot    0.083
        51           o50bf         1   UNL       o50        51    -0.60574       15.9990 ; qtot   -0.523
        52           n51bf         1   UNL       n51        52    -0.42066       14.0070 ; qtot   -0.943
        53           c52bf         1   UNL       c52        53     0.08301       12.0110 ; qtot   -0.860
        54           c53bf         1   UNL       c53        54     0.08301       12.0110 ; qtot   -0.777
        55           h54bf         1   UNL       h54        55     0.06130        1.0080 ; qtot   -0.716
        56           h55bf         1   UNL       h55        56     0.06130        1.0080 ; qtot   -0.655
        57           h56bf         1   UNL       h56        57     0.06316        1.0080 ; qtot   -0.592
        58           h57bf         1   UNL       h57        58     0.05027        1.0080 ; qtot   -0.541
        59           h58bf         1   UNL       h58        59     0.05027        1.0080 ; qtot   -0.491
        60           h59bf         1   UNL       h59        60     0.05517        1.0080 ; qtot   -0.436
        61           h60bf         1   UNL       h60        61     0.05517        1.0080 ; qtot   -0.381
        62           h61bf         1   UNL       h61        62     0.04477        1.0080 ; qtot   -0.336
        63           h62bf         1   UNL       h62        63     0.04477        1.0080 ; qtot   -0.291
        64           h63bf         1   UNL       h63        64     0.04477        1.0080 ; qtot   -0.246
        65           h64bf         1   UNL       h64        65     0.04477        1.0080 ; qtot   -0.202
        66           h65bf         1   UNL       h65        66     0.04477        1.0080 ; qtot   -0.157
        67           h66bf         1   UNL       h66        67     0.04477        1.0080 ; qtot   -0.112
        68           h67bf         1   UNL       h67        68     0.07796        1.0080 ; qtot   -0.034
        69           h68bf         1   UNL       h68        69     0.03421        1.0080 ; qtot   -0.000

[ bonds ]
;       ai        aj funct               r               k
         1         3     1        0.143181   238387.613623
         1         7     1        0.136711   271091.202002
         1        11     1        0.141966   279001.500391
         2        10     1        0.175658   149198.837769
         3         4     1        0.141468   283473.635596
         3         8     1        0.142076   277079.526465
         4         5     1        0.138105   340308.847461
         4        27     1        0.108609   319192.058496
         5         6     1        0.142628   243925.872070
         5        12     1        0.150249   176120.326611
         6         7     1        0.131677   391655.853613
         6        69     1        0.108787   316101.480908
         8         9     1        0.137846   357154.452734
         8        28     1        0.108651   318646.585840
         9        10     1        0.141707   265924.866016
         9        29     1        0.108448   325872.719531
        10        11     1        0.137713   346629.843848
        11        30     1        0.108397   327659.500000
        12        13     1        0.136690   301646.736426
        12        15     1        0.123433   588358.554102
        13        14     1        0.146456   189941.469873
        13        31     1        0.101250   416565.082080
        14        16     1        0.154744   156899.144507
        14        20     1        0.153874   173183.444116
        14        32     1        0.109299   301709.557715
        16        17     1        0.153890   171755.268506
        16        21     1        0.146250   191046.869189
        16        68     1        0.109290   301765.586133
        17        18     1        0.154579   164893.255688
        17        55     1        0.109326   300596.548340
        17        56     1        0.109326   300596.548340
        18        19     1        0.154661   163666.440186
        18        50     1        0.153191   158389.847729
        18        57     1        0.109414   302100.760693
        19        20     1        0.153693   181138.049390
        19        58     1        0.109447   297470.142188
        19        59     1        0.109447   297470.142188
        20        60     1        0.109408   298814.185791
        20        61     1        0.109408   298814.185791
        21        22     1        0.136095   315450.182471
        21        33     1        0.101409   412617.504639
        22        23     1        0.149761   181928.244165
        22        24     1        0.123205   595504.348047
        23        25     1        0.130744   394780.497705
        23        26     1        0.175753   114860.619019
        25        34     1        0.137483   250388.573877
        26        35     1        0.173418   163411.796899
        34        35     1        0.137232   358668.241504
        34        39     1        0.150284   209899.921094
        35        36     1        0.150545   205958.217187
        36        37     1        0.146468   191918.016602
        36        41     1        0.110015   279945.249805
        36        42     1        0.110015   279945.249805
        37        38     1        0.146781   189560.941406
        37        40     1        0.146077   206296.839258
        38        39     1        0.153813   178870.826514
        38        43     1        0.109814   285833.034668
        38        44     1        0.109814   285833.034668
        39        45     1        0.109539   296322.146973
        39        46     1        0.109539   296322.146973
        40        47     1        0.109765   288786.094922
        40        48     1        0.109765   288786.094922
        40        49     1        0.109765   288786.094922
        50        51     1        0.123512   586720.450684
        50        52     1        0.137606   276714.984229
        52        53     1        0.145947   208517.482446
        52        54     1        0.145947   208517.482446
        53        62     1        0.109324   300806.693213
        53        63     1        0.109324   300806.693213
        53        64     1        0.109324   300806.693213
        54        65     1        0.109324   300806.693213
        54        66     1        0.109324   300806.693213
        54        67     1        0.109324   300806.693213

[ angles ]
;       ai        aj        ak funct           theta             cth
         1         3         4     1      118.151207      793.680655
         1         3         8     1      119.004822      692.682664
         1         7         6     1      117.757042      409.728140
         1        11        10     1      119.546875      504.272201
         1        11        30     1      118.559402      438.586063
         2        10         9     1      118.388489      403.139726
         2        10        11     1      119.847473      343.591688
         3         1         7     1      122.368576      719.370986
         3         1        11     1      119.294327      709.411960
         3         4         5     1      119.877968      631.009140
         3         4        27     1      120.071030      422.465763
         3         8         9     1      120.652298      556.142954
         3         8        28     1      119.385864      438.666569
         4         3         8     1      123.060471      399.551091
         4         5         6     1      118.001732      653.120255
         4         5        12     1      120.862526      506.830732
         5         4        27     1      120.120300      412.863619
         5         6         7     1      124.392990      725.418301
         5         6        69     1      119.131126      402.099791
         5        12        13     1      116.005997      488.316456
         5        12        15     1      121.136002      647.625052
         6         5        12     1      120.932846      619.328658
         7         1        11     1      118.168312      416.443538
         7         6        69     1      116.446655      326.185945
         8         9        10     1      119.218689      615.074942
         8         9        29     1      121.231323      425.291189
         9         8        28     1      119.827438      441.809294
         9        10        11     1      121.776245      640.315118
        10         9        29     1      119.661545      440.359009
        10        11        30     1      121.875282      414.497642
        12        13        14     1      122.663597      524.754080
        12        13        31     1      118.344139      411.586348
        13        12        15     1      122.788986      599.558466
        13        14        16     1      111.255409      550.390593
        13        14        20     1      111.651413      629.856076
        13        14        32     1      106.298447      530.642810
        14        13        31     1      116.380554      412.217115
        14        16        17     1      110.936119      562.812354
        14        16        21     1      111.225784      547.852140
        14        16        68     1      107.765198      470.820535
        14        20        19     1      111.594437      623.557093
        14        20        60     1      108.989258      497.304624
        14        20        61     1      108.989258      497.304624
        16        14        20     1      110.850082      555.805354
        16        14        32     1      107.680099      473.262585
        16        17        18     1      111.939430      596.757301
        16        17        55     1      109.082336      493.142969
        16        17        56     1      109.082336      493.142969
        16        21        22     1      123.281532      523.533821
        16        21        33     1      117.985329      388.342599
        17        16        21     1      111.416893      612.846063
        17        16        68     1      108.673912      471.627763
        17        18        19     1      110.560959      569.917990
        17        18        50     1      110.802452      642.130488
        17        18        57     1      107.640671      495.211858
        18        17        55     1      109.789185      465.155383
        18        17        56     1      109.789185      465.155383
        18        19        20     1      111.603378      627.166571
        18        19        58     1      109.459435      468.787845
        18        19        59     1      109.459435      468.787845
        18        50        51     1      120.367775      453.866799
        18        50        52     1      118.348633      449.080890
        19        18        50     1      111.026161      653.509377
        19        18        57     1      107.798851      493.236244
        19        20        60     1      109.998474      502.411408
        19        20        61     1      109.998474      502.411408
        20        14        32     1      108.807823      472.036804
        20        19        58     1      109.708351      513.116564
        20        19        59     1      109.708351      513.116564
        21        16        68     1      106.369919      527.599138
        21        22        23     1      114.245560      430.111414
        21        22        24     1      124.890869      615.174089
        22        21        33     1      117.270615      420.964947
        22        23        25     1      124.340652      359.309363
        22        23        26     1      120.844772      468.365589
        23        22        24     1      120.964073      537.680773
        23        25        34     1      111.406593      328.705787
        23        26        35     1       88.551132      167.360000
        25        23        26     1      114.891418      167.360000
        25        34        35     1      115.272217      312.892188
        25        34        39     1      122.848999      461.667684
        26        35        34     1      110.263878      167.360000
        26        35        36     1      125.788002      401.332369
        34        35        36     1      123.996292      562.620314
        34        39        38     1      109.429955      644.587349
        34        39        45     1      109.759384      484.571854
        34        39        46     1      109.759384      484.571854
        35        34        39     1      121.676254      406.530862
        35        36        37     1      110.200546      563.933816
        35        36        41     1      110.205734      462.983196
        35        36        42     1      110.205734      462.983196
        36        37        38     1      111.045578      613.756014
        36        37        40     1      111.203835      630.245325
        37        36        41     1      109.551048      459.134690
        37        36        42     1      109.551048      459.134690
        37        38        39     1      112.270889      625.644432
        37        38        43     1      109.041969      476.770682
        37        38        44     1      109.041969      476.770682
        37        40        47     1      110.858498      481.423224
        37        40        48     1      110.858498      481.423224
        37        40        49     1      110.858498      481.423224
        38        37        40     1      112.192528      649.121399
        38        39        45     1      110.261795      502.853519
        38        39        46     1      110.261795      502.853519
        39        38        43     1      109.631447      493.664916
        39        38        44     1      109.631447      493.664916
        41        36        42     1      106.585083      354.341693
        43        38        44     1      107.114723      348.812845
        45        39        46     1      106.901878      363.316136
        47        40        48     1      108.062943      347.504005
        47        40        49     1      108.062943      347.504005
        48        40        49     1      108.062943      347.504005
        50        18        57     1      108.212730      515.178845
        50        52        53     1      122.129654      505.902714
        50        52        54     1      122.129654      505.902714
        51        50        52     1      121.081711      636.267423
        52        53        62     1      110.326584      477.859265
        52        53        63     1      110.326584      477.859265
        52        53        64     1      110.326584      477.859265
        52        54        65     1      110.326584      477.859265
        52        54        66     1      110.326584      477.859265
        52        54        67     1      110.326584      477.859265
        53        52        54     1      114.947632      573.331217
        55        17        56     1      107.084274      355.159487
        58        19        59     1      106.645180      359.821255
        60        20        61     1      106.839844      356.387024
        62        53        63     1      108.724693      349.793087
        62        53        64     1      108.724693      349.793087
        63        53        64     1      108.724709      349.793087
        65        54        66     1      108.724709      349.793087
        65        54        67     1      108.724709      349.793087
        66        54        67     1      108.724709      349.793087

[ dihedrals ] ; propers for gromacs 4.5 or higher, use funct 9
;       ai        aj        ak        al funct           phase               k        pn
         1         3         4         5     9        0.000000       -0.296244         1
         1         3         4         5     9      180.000000       16.118420         2
         1         3         4         5     9        0.000000       -1.071710         3
         1         3         4         5     9      180.000000       -0.409778         4
         1         3         4        27     9        0.000000       -0.217826         1
         1         3         4        27     9      180.000000       11.968492         2
         1         3         4        27     9        0.000000       -0.353693         3
         1         3         4        27     9      180.000000        0.014746         4
         1         3         8         9     9        0.000000       -0.251962         1
         1         3         8         9     9      180.000000       15.892192         2
         1         3         8         9     9        0.000000       -1.058232         3
         1         3         8         9     9      180.000000       -0.268013         4
         1         3         8        28     9        0.000000       -0.083585         1
         1         3         8        28     9      180.000000       11.816138         2
         1         3         8        28     9        0.000000       -0.286840         3
         1         3         8        28     9      180.000000       -0.033702         4
         1         7         6         5     9        0.000000       -0.257801         1
         1         7         6         5     9      180.000000       26.377592         2
         1         7         6         5     9        0.000000       -0.559149         3
         1         7         6         5     9      180.000000       -0.478652         4
         1         7         6        69     9        0.000000        1.006192         1
         1         7         6        69     9      180.000000       23.542118         2
         1         7         6        69     9        0.000000        0.215856         3
         1         7         6        69     9      180.000000       -0.420572         4
         1        11        10         2     9        0.000000        0.269816         1
         1        11        10         2     9      180.000000       21.532946         2
         1        11        10         2     9        0.000000        0.314834         3
         1        11        10         2     9      180.000000       -0.843760         4
         1        11        10         9     9        0.000000       -0.139654         1
         1        11        10         9     9      180.000000       19.143481         2
         1        11        10         9     9        0.000000       -1.287620         3
         1        11        10         9     9      180.000000       -0.446040         4
         2        10         9         8     9        0.000000        0.259393         1
         2        10         9         8     9      180.000000       16.463832         2
         2        10         9         8     9        0.000000        0.183457         3
         2        10         9         8     9      180.000000       -0.399374         4
         2        10         9        29     9        0.000000        0.149089         1
         2        10         9        29     9      180.000000       12.352641         2
         2        10         9        29     9        0.000000       -0.121459         3
         2        10         9        29     9      180.000000        0.210938         4
         2        10        11        30     9        0.000000        0.122473         1
         2        10        11        30     9      180.000000       14.269158         2
         2        10        11        30     9        0.000000       -0.086039         3
         2        10        11        30     9      180.000000        0.370145         4
         3         1         7         6     9        0.000000        0.153509         1
         3         1         7         6     9      180.000000       16.788626         2
         3         1         7         6     9        0.000000        0.148373         3
         3         1         7         6     9      180.000000       -0.237450         4
         3         1        11        10     9        0.000000       -0.179328         1
         3         1        11        10     9      180.000000       14.894921         2
         3         1        11        10     9        0.000000       -0.737200         3
         3         1        11        10     9      180.000000       -0.153164         4
         3         1        11        30     9        0.000000       -0.114815         1
         3         1        11        30     9      180.000000       12.009039         2
         3         1        11        30     9        0.000000       -0.226189         3
         3         1        11        30     9      180.000000        0.079154         4
         3         4         5         6     9        0.000000       -0.117667         1
         3         4         5         6     9      180.000000       19.830427         2
         3         4         5         6     9        0.000000       -1.680031         3
         3         4         5         6     9      180.000000       -0.647407         4
         3         4         5        12     9        0.000000        0.135843         1
         3         4         5        12     9      180.000000       16.406457         2
         3         4         5        12     9        0.000000       -0.388157         3
         3         4         5        12     9      180.000000       -0.520174         4
         3         8         9        10     9        0.000000       -0.091158         1
         3         8         9        10     9      180.000000       20.570616         2
         3         8         9        10     9        0.000000       -1.681532         3
         3         8         9        10     9      180.000000       -0.447201         4
         3         8         9        29     9        0.000000       -0.027841         1
         3         8         9        29     9      180.000000       16.499351         2
         3         8         9        29     9        0.000000       -0.570439         3
         3         8         9        29     9      180.000000       -0.005865         4
         4         3         1         7     9        0.000000        0.624335         1
         4         3         1         7     9      180.000000       10.974805         2
         4         3         1         7     9        0.000000       -0.282723         3
         4         3         1         7     9      180.000000       -0.331087         4
         4         3         1        11     9        0.000000        0.308449         1
         4         3         1        11     9      180.000000       11.439231         2
         4         3         1        11     9        0.000000       -0.757593         3
         4         3         1        11     9      180.000000       -0.232111         4
         4         3         8         9     9        0.000000       -0.241465         1
         4         3         8         9     9      180.000000       12.884143         2
         4         3         8         9     9        0.000000       -0.713282         3
         4         3         8         9     9      180.000000       -0.102371         4
         4         3         8        28     9        0.000000       -0.196930         1
         4         3         8        28     9      180.000000       10.906127         2
         4         3         8        28     9        0.000000       -0.526056         3
         4         3         8        28     9      180.000000        0.033459         4
         4         5         6         7     9        0.000000       -0.086893         1
         4         5         6         7     9      180.000000       14.190301         2
         4         5         6         7     9        0.000000       -0.499901         3
         4         5         6         7     9      180.000000       -0.196395         4
         4         5         6        69     9        0.000000        0.287674         1
         4         5         6        69     9      180.000000       12.389494         2
         4         5         6        69     9        0.000000       -0.441026         3
         4         5         6        69     9      180.000000       -0.035236         4
         4         5        12        13     9        0.000000        0.092453         1
         4         5        12        13     9      180.000000        2.732968         2
         4         5        12        13     9        0.000000        0.380009         3
         4         5        12        13     9      180.000000       -0.442140         4
         4         5        12        15     9        0.000000        0.415970         1
         4         5        12        15     9      180.000000        3.246950         2
         4         5        12        15     9        0.000000       -0.031980         3
         4         5        12        15     9      180.000000       -0.013273         4
         5         4         3         8     9        0.000000       -0.200342         1
         5         4         3         8     9      180.000000       13.452273         2
         5         4         3         8     9        0.000000       -0.871130         3
         5         4         3         8     9      180.000000       -0.120626         4
         5        12        13        14     9        0.000000        2.443663         1
         5        12        13        14     9      180.000000       11.286971         2
         5        12        13        14     9        0.000000        1.568800         3
         5        12        13        14     9      180.000000       -0.139420         4
         5        12        13        31     9        0.000000       -1.120997         1
         5        12        13        31     9      180.000000       11.003678         2
         5        12        13        31     9        0.000000        0.677815         3
         5        12        13        31     9      180.000000        0.836807         4
         6         5         4        27     9        0.000000       -0.031973         1
         6         5         4        27     9      180.000000       14.460000         2
         6         5         4        27     9        0.000000       -0.537052         3
         6         5         4        27     9      180.000000        0.107157         4
         6         5        12        13     9        0.000000       -0.119505         1
         6         5        12        13     9      180.000000        2.731905         2
         6         5        12        13     9        0.000000        0.084863         3
         6         5        12        13     9      180.000000       -0.395871         4
         6         5        12        15     9        0.000000       -0.589934         1
         6         5        12        15     9      180.000000        3.414239         2
         6         5        12        15     9        0.000000       -0.133164         3
         6         5        12        15     9      180.000000       -0.052088         4
         6         7         1        11     9        0.000000       -0.288671         1
         6         7         1        11     9      180.000000       16.754989         2
         6         7         1        11     9        0.000000        0.433371         3
         6         7         1        11     9      180.000000       -0.256089         4
         7         1         3         8     9        0.000000        0.564939         1
         7         1         3         8     9      180.000000       11.297404         2
         7         1         3         8     9        0.000000       -0.345216         3
         7         1         3         8     9      180.000000       -0.302104         4
         7         1        11        10     9        0.000000        0.037044         1
         7         1        11        10     9      180.000000       14.179812         2
         7         1        11        10     9        0.000000       -0.045264         3
         7         1        11        10     9      180.000000       -0.360681         4
         7         1        11        30     9        0.000000        0.084456         1
         7         1        11        30     9      180.000000       12.535117         2
         7         1        11        30     9        0.000000       -0.387536         3
         7         1        11        30     9      180.000000        0.064497         4
         7         6         5        12     9        0.000000       -0.318085         1
         7         6         5        12     9      180.000000       12.202447         2
         7         6         5        12     9        0.000000       -0.090625         3
         7         6         5        12     9      180.000000       -0.499571         4
         8         3         1        11     9        0.000000        0.271360         1
         8         3         1        11     9      180.000000       11.737135         2
         8         3         1        11     9        0.000000       -0.897977         3
         8         3         1        11     9      180.000000       -0.248908         4
         8         3         4        27     9        0.000000       -0.174182         1
         8         3         4        27     9      180.000000       10.457911         2
         8         3         4        27     9        0.000000       -0.400984         3
         8         3         4        27     9      180.000000        0.109381         4
         8         9        10        11     9        0.000000       -0.119146         1
         8         9        10        11     9      180.000000       15.331840         2
         8         9        10        11     9        0.000000       -1.161801         3
         8         9        10        11     9      180.000000       -0.233804         4
         9        10        11        30     9        0.000000       -0.036044         1
         9        10        11        30     9      180.000000       14.462537         2
         9        10        11        30     9        0.000000       -0.419480         3
         9        10        11        30     9      180.000000        0.089600         4
        10         9         8        28     9        0.000000        0.037803         1
        10         9         8        28     9      180.000000       15.947114         2
        10         9         8        28     9        0.000000       -0.484389         3
        10         9         8        28     9      180.000000        0.115042         4
        11        10         9        29     9        0.000000       -0.056361         1
        11        10         9        29     9      180.000000       12.501370         2
        11        10         9        29     9        0.000000       -0.570113         3
        11        10         9        29     9      180.000000        0.103278         4
        12         5         4        27     9        0.000000        0.043567         1
        12         5         4        27     9      180.000000       13.040698         2
        12         5         4        27     9        0.000000       -0.282266         3
        12         5         4        27     9      180.000000        0.120392         4
        12         5         6        69     9        0.000000        0.216156         1
        12         5         6        69     9      180.000000       11.691820         2
        12         5         6        69     9        0.000000       -0.164207         3
        12         5         6        69     9      180.000000       -0.093286         4
        12        13        14        16     9        0.000000        1.111394         1
        12        13        14        16     9      180.000000       -0.572479         2
        12        13        14        16     9        0.000000        0.300917         3
        12        13        14        16     9      180.000000        0.182714         4
        12        13        14        20     9        0.000000       -0.088424         1
        12        13        14        20     9      180.000000       -0.245898         2
        12        13        14        20     9        0.000000        0.429006         3
        12        13        14        20     9      180.000000       -0.016062         4
        12        13        14        32     9        0.000000       -0.103371         1
        12        13        14        32     9      180.000000        0.124067         2
        12        13        14        32     9        0.000000        0.194500         3
        12        13        14        32     9      180.000000        0.186994         4
        13        14        16        17     9        0.000000       -0.754200         1
        13        14        16        17     9      180.000000        0.040998         2
        13        14        16        17     9        0.000000        0.045838         3
        13        14        16        17     9      180.000000        0.312165         4
        13        14        16        21     9        0.000000        2.725963         1
        13        14        16        21     9      180.000000        0.085271         2
        13        14        16        21     9        0.000000       -0.524491         3
        13        14        16        21     9      180.000000        0.058197         4
        13        14        16        68     9        0.000000       -0.508322         1
        13        14        16        68     9      180.000000        0.050926         2
        13        14        16        68     9        0.000000        0.353867         3
        13        14        16        68     9      180.000000       -0.028899         4
        13        14        20        19     9        0.000000       -0.386952         1
        13        14        20        19     9      180.000000        0.586595         2
        13        14        20        19     9        0.000000        0.152528         3
        13        14        20        19     9      180.000000        0.171651         4
        13        14        20        60     9        0.000000        0.032637         1
        13        14        20        60     9      180.000000        0.096880         2
        13        14        20        60     9        0.000000        0.349508         3
        13        14        20        60     9      180.000000       -0.078872         4
        13        14        20        61     9        0.000000        0.032637         1
        13        14        20        61     9      180.000000        0.096880         2
        13        14        20        61     9        0.000000        0.349508         3
        13        14        20        61     9      180.000000       -0.078872         4
        14        13        12        15     9        0.000000       -1.276380         1
        14        13        12        15     9      180.000000        8.591238         2
        14        13        12        15     9        0.000000        0.271609         3
        14        13        12        15     9      180.000000       -0.741560         4
        14        16        17        18     9        0.000000        3.457603         1
        14        16        17        18     9      180.000000       -1.753696         2
        14        16        17        18     9        0.000000       -0.098468         3
        14        16        17        18     9      180.000000        0.004361         4
        14        16        17        55     9        0.000000       -0.092937         1
        14        16        17        55     9      180.000000        0.067401         2
        14        16        17        55     9        0.000000        0.169430         3
        14        16        17        55     9      180.000000        0.048297         4
        14        16        17        56     9        0.000000       -0.092937         1
        14        16        17        56     9      180.000000        0.067401         2
        14        16        17        56     9        0.000000        0.169430         3
        14        16        17        56     9      180.000000        0.048297         4
        14        16        21        22     9        0.000000        1.041308         1
        14        16        21        22     9      180.000000       -0.423149         2
        14        16        21        22     9        0.000000        0.330451         3
        14        16        21        22     9      180.000000        0.174665         4
        14        16        21        33     9        0.000000        0.617191         1
        14        16        21        33     9      180.000000       -1.074880         2
        14        16        21        33     9        0.000000        0.535456         3
        14        16        21        33     9      180.000000        0.022043         4
        14        20        19        18     9        0.000000        1.287113         1
        14        20        19        18     9      180.000000       -1.618282         2
        14        20        19        18     9        0.000000        0.191622         3
        14        20        19        18     9      180.000000        0.077554         4
        14        20        19        58     9        0.000000       -0.092904         1
        14        20        19        58     9      180.000000        0.066912         2
        14        20        19        58     9        0.000000        0.236401         3
        14        20        19        58     9      180.000000        0.021587         4
        14        20        19        59     9        0.000000       -0.092904         1
        14        20        19        59     9      180.000000        0.066912         2
        14        20        19        59     9        0.000000        0.236401         3
        14        20        19        59     9      180.000000        0.021587         4
        15        12        13        31     9        0.000000       -0.173365         1
        15        12        13        31     9      180.000000       10.812677         2
        15        12        13        31     9        0.000000        0.068690         3
        15        12        13        31     9      180.000000        0.380555         4
        16        14        13        31     9        0.000000        0.514236         1
        16        14        13        31     9      180.000000       -1.127053         2
        16        14        13        31     9        0.000000        0.613966         3
        16        14        13        31     9      180.000000        0.032404         4
        16        14        20        19     9        0.000000        2.710236         1
        16        14        20        19     9      180.000000       -1.635564         2
        16        14        20        19     9        0.000000        0.048934         3
        16        14        20        19     9      180.000000        0.053922         4
        16        14        20        60     9        0.000000       -0.095233         1
        16        14        20        60     9      180.000000        0.059773         2
        16        14        20        60     9        0.000000        0.179173         3
        16        14        20        60     9      180.000000        0.056545         4
        16        14        20        61     9        0.000000       -0.095233         1
        16        14        20        61     9      180.000000        0.059773         2
        16        14        20        61     9        0.000000        0.179173         3
        16        14        20        61     9      180.000000        0.056545         4
        16        17        18        19     9        0.000000        2.167701         1
        16        17        18        19     9      180.000000       -2.095071         2
        16        17        18        19     9        0.000000        0.100990         3
        16        17        18        19     9      180.000000       -0.067359         4
        16        17        18        50     9        0.000000       -0.969890         1
        16        17        18        50     9      180.000000       -0.492010         2
        16        17        18        50     9        0.000000        0.043330         3
        16        17        18        50     9      180.000000        0.044241         4
        16        17        18        57     9        0.000000       -0.731592         1
        16        17        18        57     9      180.000000        0.097424         2
        16        17        18        57     9        0.000000        0.165659         3
        16        17        18        57     9      180.000000        0.052140         4
        16        21        22        23     9        0.000000        1.551351         1
        16        21        22        23     9      180.000000       10.806241         2
        16        21        22        23     9        0.000000        0.659059         3
        16        21        22        23     9      180.000000       -0.282031         4
        16        21        22        24     9        0.000000       -0.687196         1
        16        21        22        24     9      180.000000       10.163927         2
        16        21        22        24     9        0.000000        0.483358         3
        16        21        22        24     9      180.000000       -1.334168         4
        17        16        14        20     9        0.000000        3.377915         1
        17        16        14        20     9      180.000000       -1.644845         2
        17        16        14        20     9        0.000000        0.090639         3
        17        16        14        20     9      180.000000       -0.008978         4
        17        16        14        32     9        0.000000       -0.366024         1
        17        16        14        32     9      180.000000        0.081295         2
        17        16        14        32     9        0.000000        0.302992         3
        17        16        14        32     9      180.000000        0.055566         4
        17        16        21        22     9        0.000000       -0.005175         1
        17        16        21        22     9      180.000000       -0.401672         2
        17        16        21        22     9        0.000000        0.370215         3
        17        16        21        22     9      180.000000        0.053218         4
        17        16        21        33     9        0.000000       -0.136586         1
        17        16        21        33     9      180.000000       -0.353037         2
        17        16        21        33     9        0.000000        0.351756         3
        17        16        21        33     9      180.000000       -0.038850         4
        17        18        19        20     9        0.000000        0.883010         1
        17        18        19        20     9      180.000000       -1.399872         2
        17        18        19        20     9        0.000000        0.314248         3
        17        18        19        20     9      180.000000       -0.050797         4
        17        18        19        58     9        0.000000       -0.056826         1
        17        18        19        58     9      180.000000        0.050149         2
        17        18        19        58     9        0.000000        0.270717         3
        17        18        19        58     9      180.000000        0.019384         4
        17        18        19        59     9        0.000000       -0.056826         1
        17        18        19        59     9      180.000000        0.050149         2
        17        18        19        59     9        0.000000        0.270717         3
        17        18        19        59     9      180.000000        0.019384         4
        17        18        50        51     9        0.000000       -0.455386         1
        17        18        50        51     9      180.000000        0.737900         2
        17        18        50        51     9        0.000000        0.287526         3
        17        18        50        51     9      180.000000        0.250951         4
        17        18        50        52     9        0.000000        0.270994         1
        17        18        50        52     9      180.000000        1.080078         2
        17        18        50        52     9        0.000000       -0.027563         3
        17        18        50        52     9      180.000000        0.001527         4
        18        17        16        21     9        0.000000       -0.378319         1
        18        17        16        21     9      180.000000        0.218820         2
        18        17        16        21     9        0.000000        0.056326         3
        18        17        16        21     9      180.000000        0.226509         4
        18        17        16        68     9        0.000000       -0.669048         1
        18        17        16        68     9      180.000000        0.139249         2
        18        17        16        68     9        0.000000        0.154171         3
        18        17        16        68     9      180.000000        0.076395         4
        18        19        20        60     9        0.000000       -0.080258         1
        18        19        20        60     9      180.000000        0.083233         2
        18        19        20        60     9        0.000000        0.213417         3
        18        19        20        60     9      180.000000        0.012387         4
        18        19        20        61     9        0.000000       -0.080258         1
        18        19        20        61     9      180.000000        0.083233         2
        18        19        20        61     9        0.000000        0.213417         3
        18        19        20        61     9      180.000000        0.012387         4
        18        50        52        53     9        0.000000        7.685850         1
        18        50        52        53     9      180.000000       10.413246         2
        18        50        52        53     9        0.000000        0.340038         3
        18        50        52        53     9      180.000000       -0.442447         4
        18        50        52        54     9        0.000000        7.685850         1
        18        50        52        54     9      180.000000       10.413246         2
        18        50        52        54     9        0.000000        0.340038         3
        18        50        52        54     9      180.000000       -0.442447         4
        19        18        17        55     9        0.000000       -0.052172         1
        19        18        17        55     9      180.000000        0.058083         2
        19        18        17        55     9        0.000000        0.229959         3
        19        18        17        55     9      180.000000        0.057798         4
        19        18        17        56     9        0.000000       -0.052172         1
        19        18        17        56     9      180.000000        0.058083         2
        19        18        17        56     9        0.000000        0.229959         3
        19        18        17        56     9      180.000000        0.057798         4
        19        18        50        51     9        0.000000       -0.698289         1
        19        18        50        51     9      180.000000        0.744054         2
        19        18        50        51     9        0.000000        0.336890         3
        19        18        50        51     9      180.000000        0.225666         4
        19        18        50        52     9        0.000000        0.291846         1
        19        18        50        52     9      180.000000        1.098654         2
        19        18        50        52     9        0.000000        0.042828         3
        19        18        50        52     9      180.000000       -0.012816         4
        19        20        14        32     9        0.000000       -0.430053         1
        19        20        14        32     9      180.000000        0.170607         2
        19        20        14        32     9        0.000000        0.243833         3
        19        20        14        32     9      180.000000        0.024422         4
        20        14        13        31     9        0.000000        0.047291         1
        20        14        13        31     9      180.000000       -0.065815         2
        20        14        13        31     9        0.000000        0.424436         3
        20        14        13        31     9      180.000000       -0.016136         4
        20        14        16        21     9        0.000000       -0.454566         1
        20        14        16        21     9      180.000000        0.242032         2
        20        14        16        21     9        0.000000        0.143071         3
        20        14        16        21     9      180.000000        0.208712         4
        20        14        16        68     9        0.000000       -0.391941         1
        20        14        16        68     9      180.000000        0.123120         2
        20        14        16        68     9        0.000000        0.322652         3
        20        14        16        68     9      180.000000        0.045492         4
        20        19        18        50     9        0.000000       -1.205837         1
        20        19        18        50     9      180.000000       -0.024594         2
        20        19        18        50     9        0.000000        0.127041         3
        20        19        18        50     9      180.000000        0.096010         4
        20        19        18        57     9        0.000000       -0.470892         1
        20        19        18        57     9      180.000000        0.118851         2
        20        19        18        57     9        0.000000        0.267874         3
        20        19        18        57     9      180.000000        0.031479         4
        21        16        14        32     9        0.000000       -0.386013         1
        21        16        14        32     9      180.000000        0.011541         2
        21        16        14        32     9        0.000000        0.353951         3
        21        16        14        32     9      180.000000       -0.009309         4
        21        16        17        55     9        0.000000        0.122902         1
        21        16        17        55     9      180.000000        0.128407         2
        21        16        17        55     9        0.000000        0.386720         3
        21        16        17        55     9      180.000000       -0.072984         4
        21        16        17        56     9        0.000000        0.122902         1
        21        16        17        56     9      180.000000        0.128407         2
        21        16        17        56     9        0.000000        0.386720         3
        21        16        17        56     9      180.000000       -0.072984         4
        21        22        23        25     9        0.000000        2.923749         1
        21        22        23        25     9      180.000000        2.022095         2
        21        22        23        25     9        0.000000        0.151149         3
        21        22        23        25     9      180.000000       -0.373995         4
        21        22        23        26     9        0.000000       -0.304414         1
        21        22        23        26     9      180.000000        3.200684         2
        21        22        23        26     9        0.000000        0.463910         3
        21        22        23        26     9      180.000000       -0.514292         4
        22        21        16        68     9        0.000000        0.020172         1
        22        21        16        68     9      180.000000        0.144925         2
        22        21        16        68     9        0.000000        0.214736         3
        22        21        16        68     9      180.000000        0.179789         4
        22        23        25        34     9        0.000000        0.509539         1
        22        23        25        34     9      180.000000       28.889665         2
        22        23        25        34     9        0.000000        0.564950         3
        22        23        25        34     9      180.000000       -0.961131         4
        22        23        26        35     9        0.000000       -1.127037         1
        22        23        26        35     9      180.000000       15.581777         2
        22        23        26        35     9        0.000000       -0.036420         3
        22        23        26        35     9      180.000000       -0.602861         4
        23        22        21        33     9        0.000000       -0.415752         1
        23        22        21        33     9      180.000000        9.010384         2
        23        22        21        33     9        0.000000        0.175298         3
        23        22        21        33     9      180.000000       -0.065606         4
        23        25        34        35     9        0.000000       -0.228535         1
        23        25        34        35     9      180.000000       27.756785         2
        23        25        34        35     9        0.000000       -2.863850         3
        23        25        34        35     9      180.000000       -0.158646         4
        23        25        34        39     9        0.000000        0.109642         1
        23        25        34        39     9      180.000000       22.524852         2
        23        25        34        39     9        0.000000        0.728535         3
        23        25        34        39     9      180.000000       -0.420500         4
        23        26        35        34     9        0.000000        0.019507         1
        23        26        35        34     9      180.000000       29.322726         2
        23        26        35        34     9        0.000000       -6.425576         3
        23        26        35        34     9      180.000000       -0.474428         4
        23        26        35        36     9        0.000000        0.448650         1
        23        26        35        36     9      180.000000       11.835073         2
        23        26        35        36     9        0.000000        0.424426         3
        23        26        35        36     9      180.000000       -0.134990         4
        24        22        21        33     9        0.000000       -0.005332         1
        24        22        21        33     9      180.000000       10.730372         2
        24        22        21        33     9        0.000000       -0.060300         3
        24        22        21        33     9      180.000000       -0.147584         4
        24        22        23        25     9        0.000000       -1.392140         1
        24        22        23        25     9      180.000000        3.582888         2
        24        22        23        25     9        0.000000        0.461599         3
        24        22        23        25     9      180.000000        0.214010         4
        24        22        23        26     9        0.000000        0.210149         1
        24        22        23        26     9      180.000000        4.370762         2
        24        22        23        26     9        0.000000       -0.343613         3
        24        22        23        26     9      180.000000        0.218765         4
        25        23        26        35     9        0.000000       -0.590193         1
        25        23        26        35     9      180.000000       31.322398         2
        25        23        26        35     9        0.000000       -5.851399         3
        25        23        26        35     9      180.000000       -0.585767         4
        25        34        35        26     9        0.000000       -0.800174         1
        25        34        35        26     9      180.000000       28.383673         2
        25        34        35        26     9        0.000000       -5.049933         3
        25        34        35        26     9      180.000000       -1.030530         4
        25        34        35        36     9        0.000000        0.006237         1
        25        34        35        36     9      180.000000       19.786124         2
        25        34        35        36     9        0.000000       -0.767005         3
        25        34        35        36     9      180.000000       -1.000863         4
        25        34        39        38     9        0.000000       -1.761287         1
        25        34        39        38     9      180.000000       -0.518566         2
        25        34        39        38     9        0.000000        0.250165         3
        25        34        39        38     9      180.000000        0.137553         4
        25        34        39        45     9        0.000000        0.061059         1
        25        34        39        45     9      180.000000        0.031081         2
        25        34        39        45     9        0.000000        0.254497         3
        25        34        39        45     9      180.000000       -0.033807         4
        25        34        39        46     9        0.000000        0.061059         1
        25        34        39        46     9      180.000000        0.031081         2
        25        34        39        46     9        0.000000        0.254497         3
        25        34        39        46     9      180.000000       -0.033807         4
        26        23        25        34     9        0.000000       -0.414856         1
        26        23        25        34     9      180.000000       36.017356         2
        26        23        25        34     9        0.000000       -4.165866         3
        26        23        25        34     9      180.000000        0.025250         4
        26        35        34        39     9        0.000000        0.102614         1
        26        35        34        39     9      180.000000       18.114968         2
        26        35        34        39     9        0.000000       -0.791874         3
        26        35        34        39     9      180.000000       -0.971119         4
        26        35        36        37     9        0.000000       -3.606837         1
        26        35        36        37     9      180.000000       -0.362514         2
        26        35        36        37     9        0.000000        0.387711         3
        26        35        36        37     9      180.000000        0.164191         4
        26        35        36        41     9        0.000000        0.050382         1
        26        35        36        41     9      180.000000        0.088073         2
        26        35        36        41     9        0.000000        0.411892         3
        26        35        36        41     9      180.000000       -0.037587         4
        26        35        36        42     9        0.000000        0.050382         1
        26        35        36        42     9      180.000000        0.088073         2
        26        35        36        42     9        0.000000        0.411892         3
        26        35        36        42     9      180.000000       -0.037587         4
        28         8         9        29     9        0.000000       -0.083536         1
        28         8         9        29     9      180.000000       12.694862         2
        28         8         9        29     9        0.000000       -0.686070         3
        28         8         9        29     9      180.000000        0.339460         4
        31        13        14        32     9        0.000000       -0.970390         1
        31        13        14        32     9      180.000000       -0.035268         2
        31        13        14        32     9        0.000000        0.610976         3
        31        13        14        32     9      180.000000        0.161041         4
        32        14        16        68     9        0.000000        0.153115         1
        32        14        16        68     9      180.000000       -0.171492         2
        32        14        16        68     9        0.000000        0.417295         3
        32        14        16        68     9      180.000000       -0.052650         4
        32        14        20        60     9        0.000000        0.035948         1
        32        14        20        60     9      180.000000        0.015899         2
        32        14        20        60     9        0.000000        0.371211         3
        32        14        20        60     9      180.000000        0.009098         4
        32        14        20        61     9        0.000000        0.035948         1
        32        14        20        61     9      180.000000        0.015899         2
        32        14        20        61     9        0.000000        0.371211         3
        32        14        20        61     9      180.000000        0.009098         4
        33        21        16        68     9        0.000000       -0.794086         1
        33        21        16        68     9      180.000000        0.147692         2
        33        21        16        68     9        0.000000        0.562941         3
        33        21        16        68     9      180.000000        0.176200         4
        34        35        36        37     9        0.000000       -3.311658         1
        34        35        36        37     9      180.000000        0.893056         2
        34        35        36        37     9        0.000000       -0.312861         3
        34        35        36        37     9      180.000000        0.089561         4
        34        35        36        41     9        0.000000       -0.010515         1
        34        35        36        41     9      180.000000       -0.166834         2
        34        35        36        41     9        0.000000       -0.357655         3
        34        35        36        41     9      180.000000       -0.002483         4
        34        35        36        42     9        0.000000       -0.010515         1
        34        35        36        42     9      180.000000       -0.166834         2
        34        35        36        42     9        0.000000       -0.357655         3
        34        35        36        42     9      180.000000       -0.002483         4
        34        39        38        37     9        0.000000       -1.384129         1
        34        39        38        37     9      180.000000       -0.653292         2
        34        39        38        37     9        0.000000        0.502380         3
        34        39        38        37     9      180.000000       -0.119672         4
        34        39        38        43     9        0.000000        0.056682         1
        34        39        38        43     9      180.000000        0.029063         2
        34        39        38        43     9        0.000000        0.464816         3
        34        39        38        43     9      180.000000        0.029460         4
        34        39        38        44     9        0.000000        0.056682         1
        34        39        38        44     9      180.000000        0.029063         2
        34        39        38        44     9        0.000000        0.464816         3
        34        39        38        44     9      180.000000        0.029460         4
        35        34        39        38     9        0.000000       -0.581697         1
        35        34        39        38     9      180.000000       -0.178850         2
        35        34        39        38     9        0.000000       -0.539812         3
        35        34        39        38     9      180.000000        0.228285         4
        35        34        39        45     9        0.000000        0.001137         1
        35        34        39        45     9      180.000000       -0.132140         2
        35        34        39        45     9        0.000000       -0.440824         3
        35        34        39        45     9      180.000000        0.030108         4
        35        34        39        46     9        0.000000        0.001137         1
        35        34        39        46     9      180.000000       -0.132140         2
        35        34        39        46     9        0.000000       -0.440824         3
        35        34        39        46     9      180.000000        0.030108         4
        35        36        37        38     9        0.000000        1.757084         1
        35        36        37        38     9      180.000000       -1.262017         2
        35        36        37        38     9        0.000000        0.610032         3
        35        36        37        38     9      180.000000       -0.013762         4
        35        36        37        40     9        0.000000        0.088848         1
        35        36        37        40     9      180.000000        0.098174         2
        35        36        37        40     9        0.000000        0.957104         3
        35        36        37        40     9      180.000000        0.111039         4
        36        35        34        39     9        0.000000        0.173945         1
        36        35        34        39     9      180.000000       16.682661         2
        36        35        34        39     9        0.000000       -0.531422         3
        36        35        34        39     9      180.000000       -0.483502         4
        36        37        38        39     9        0.000000        2.929372         1
        36        37        38        39     9      180.000000       -2.275396         2
        36        37        38        39     9        0.000000        0.136332         3
        36        37        38        39     9      180.000000        0.386228         4
        36        37        38        43     9        0.000000       -0.123649         1
        36        37        38        43     9      180.000000        0.088231         2
        36        37        38        43     9        0.000000        0.293555         3
        36        37        38        43     9      180.000000        0.009401         4
        36        37        38        44     9        0.000000       -0.123649         1
        36        37        38        44     9      180.000000        0.088231         2
        36        37        38        44     9        0.000000        0.293555         3
        36        37        38        44     9      180.000000        0.009401         4
        36        37        40        47     9        0.000000       -0.036256         1
        36        37        40        47     9      180.000000        0.018735         2
        36        37        40        47     9        0.000000        1.024067         3
        36        37        40        47     9      180.000000        0.001601         4
        36        37        40        48     9        0.000000       -0.036256         1
        36        37        40        48     9      180.000000        0.018735         2
        36        37        40        48     9        0.000000        1.024067         3
        36        37        40        48     9      180.000000        0.001601         4
        36        37        40        49     9        0.000000       -0.036256         1
        36        37        40        49     9      180.000000        0.018735         2
        36        37        40        49     9        0.000000        1.024067         3
        36        37        40        49     9      180.000000        0.001601         4
        37        38        39        45     9        0.000000       -0.054085         1
        37        38        39        45     9      180.000000        0.034526         2
        37        38        39        45     9        0.000000        0.373195         3
        37        38        39        45     9      180.000000        0.083514         4
        37        38        39        46     9        0.000000       -0.054085         1
        37        38        39        46     9      180.000000        0.034526         2
        37        38        39        46     9        0.000000        0.373195         3
        37        38        39        46     9      180.000000        0.083514         4
        38        37        36        41     9        0.000000       -0.029691         1
        38        37        36        41     9      180.000000        0.036400         2
        38        37        36        41     9        0.000000        0.631979         3
        38        37        36        41     9      180.000000        0.071457         4
        38        37        36        42     9        0.000000       -0.029691         1
        38        37        36        42     9      180.000000        0.036400         2
        38        37        36        42     9        0.000000        0.631979         3
        38        37        36        42     9      180.000000        0.071457         4
        38        37        40        47     9        0.000000       -0.014100         1
        38        37        40        47     9      180.000000        0.015343         2
        38        37        40        47     9        0.000000        0.884158         3
        38        37        40        47     9      180.000000        0.019132         4
        38        37        40        48     9        0.000000       -0.014100         1
        38        37        40        48     9      180.000000        0.015343         2
        38        37        40        48     9        0.000000        0.884158         3
        38        37        40        48     9      180.000000        0.019132         4
        38        37        40        49     9        0.000000       -0.014100         1
        38        37        40        49     9      180.000000        0.015343         2
        38        37        40        49     9        0.000000        0.884158         3
        38        37        40        49     9      180.000000        0.019132         4
        39        38        37        40     9        0.000000        1.698500         1
        39        38        37        40     9      180.000000       -0.487751         2
        39        38        37        40     9        0.000000        0.450767         3
        39        38        37        40     9      180.000000        0.246699         4
        40        37        36        41     9        0.000000        0.111988         1
        40        37        36        41     9      180.000000        0.004567         2
        40        37        36        41     9        0.000000        0.981665         3
        40        37        36        41     9      180.000000       -0.069874         4
        40        37        36        42     9        0.000000        0.111988         1
        40        37        36        42     9      180.000000        0.004567         2
        40        37        36        42     9        0.000000        0.981665         3
        40        37        36        42     9      180.000000       -0.069874         4
        40        37        38        43     9        0.000000       -0.115413         1
        40        37        38        43     9      180.000000       -0.101300         2
        40        37        38        43     9        0.000000        0.611434         3
        40        37        38        43     9      180.000000       -0.123227         4
        40        37        38        44     9        0.000000       -0.115413         1
        40        37        38        44     9      180.000000       -0.101300         2
        40        37        38        44     9        0.000000        0.611434         3
        40        37        38        44     9      180.000000       -0.123227         4
        43        38        39        45     9        0.000000       -0.014895         1
        43        38        39        45     9      180.000000       -0.022227         2
        43        38        39        45     9        0.000000        0.401862         3
        43        38        39        45     9      180.000000       -0.001746         4
        43        38        39        46     9        0.000000       -0.014895         1
        43        38        39        46     9      180.000000       -0.022227         2
        43        38        39        46     9        0.000000        0.401862         3
        43        38        39        46     9      180.000000       -0.001746         4
        44        38        39        45     9        0.000000       -0.014895         1
        44        38        39        45     9      180.000000       -0.022227         2
        44        38        39        45     9        0.000000        0.401862         3
        44        38        39        45     9      180.000000       -0.001746         4
        44        38        39        46     9        0.000000       -0.014895         1
        44        38        39        46     9      180.000000       -0.022227         2
        44        38        39        46     9        0.000000        0.401862         3
        44        38        39        46     9      180.000000       -0.001746         4
        50        18        17        55     9        0.000000        0.178565         1
        50        18        17        55     9      180.000000        0.124017         2
        50        18        17        55     9        0.000000        0.213224         3
        50        18        17        55     9      180.000000       -0.042705         4
        50        18        17        56     9        0.000000        0.178565         1
        50        18        17        56     9      180.000000        0.124017         2
        50        18        17        56     9        0.000000        0.213224         3
        50        18        17        56     9      180.000000       -0.042705         4
        50        18        19        58     9        0.000000        0.159078         1
        50        18        19        58     9      180.000000        0.098531         2
        50        18        19        58     9        0.000000        0.249228         3
        50        18        19        58     9      180.000000       -0.047820         4
        50        18        19        59     9        0.000000        0.159078         1
        50        18        19        59     9      180.000000        0.098531         2
        50        18        19        59     9        0.000000        0.249228         3
        50        18        19        59     9      180.000000       -0.047820         4
        50        52        53        62     9        0.000000       -0.008626         1
        50        52        53        62     9      180.000000        0.038862         2
        50        52        53        62     9        0.000000        0.235749         3
        50        52        53        62     9      180.000000        0.020475         4
        50        52        53        63     9        0.000000       -0.008626         1
        50        52        53        63     9      180.000000        0.038862         2
        50        52        53        63     9        0.000000        0.235749         3
        50        52        53        63     9      180.000000        0.020475         4
        50        52        53        64     9        0.000000       -0.008626         1
        50        52        53        64     9      180.000000        0.038862         2
        50        52        53        64     9        0.000000        0.235749         3
        50        52        53        64     9      180.000000        0.020475         4
        50        52        54        65     9        0.000000       -0.008626         1
        50        52        54        65     9      180.000000        0.038862         2
        50        52        54        65     9        0.000000        0.235749         3
        50        52        54        65     9      180.000000        0.020475         4
        50        52        54        66     9        0.000000       -0.008626         1
        50        52        54        66     9      180.000000        0.038862         2
        50        52        54        66     9        0.000000        0.235749         3
        50        52        54        66     9      180.000000        0.020475         4
        50        52        54        67     9        0.000000       -0.008626         1
        50        52        54        67     9      180.000000        0.038862         2
        50        52        54        67     9        0.000000        0.235749         3
        50        52        54        67     9      180.000000        0.020475         4
        51        50        18        57     9        0.000000        1.593583         1
        51        50        18        57     9      180.000000        0.703025         2
        51        50        18        57     9        0.000000        0.717740         3
        51        50        18        57     9      180.000000       -0.500486         4
        51        50        52        53     9        0.000000       -0.375518         1
        51        50        52        53     9      180.000000       13.044421         2
        51        50        52        53     9        0.000000       -1.547115         3
        51        50        52        53     9      180.000000       -0.087257         4
        51        50        52        54     9        0.000000       -0.375518         1
        51        50        52        54     9      180.000000       13.044421         2
        51        50        52        54     9        0.000000       -1.547115         3
        51        50        52        54     9      180.000000       -0.087257         4
        52        50        18        57     9        0.000000       -0.215324         1
        52        50        18        57     9      180.000000        0.004504         2
        52        50        18        57     9        0.000000       -0.151551         3
        52        50        18        57     9      180.000000       -0.047823         4
        53        52        54        65     9        0.000000       -0.024574         1
        53        52        54        65     9      180.000000        0.053683         2
        53        52        54        65     9        0.000000        1.208154         3
        53        52        54        65     9      180.000000        0.010416         4
        53        52        54        66     9        0.000000       -0.024574         1
        53        52        54        66     9      180.000000        0.053683         2
        53        52        54        66     9        0.000000        1.208154         3
        53        52        54        66     9      180.000000        0.010416         4
        53        52        54        67     9        0.000000       -0.024574         1
        53        52        54        67     9      180.000000        0.053683         2
        53        52        54        67     9        0.000000        1.208154         3
        53        52        54        67     9      180.000000        0.010416         4
        54        52        53        62     9        0.000000       -0.024574         1
        54        52        53        62     9      180.000000        0.053683         2
        54        52        53        62     9        0.000000        1.208154         3
        54        52        53        62     9      180.000000        0.010416         4
        54        52        53        63     9        0.000000       -0.024574         1
        54        52        53        63     9      180.000000        0.053683         2
        54        52        53        63     9        0.000000        1.208154         3
        54        52        53        63     9      180.000000        0.010416         4
        54        52        53        64     9        0.000000       -0.024574         1
        54        52        53        64     9      180.000000        0.053683         2
        54        52        53        64     9        0.000000        1.208154         3
        54        52        53        64     9      180.000000        0.010416         4
        55        17        16        68     9        0.000000        0.032620         1
        55        17        16        68     9      180.000000        0.014450         2
        55        17        16        68     9        0.000000        0.397221         3
        55        17        16        68     9      180.000000        0.013351         4
        55        17        18        57     9        0.000000        0.092902         1
        55        17        18        57     9      180.000000        0.093401         2
        55        17        18        57     9        0.000000        0.416253         3
        55        17        18        57     9      180.000000       -0.035407         4
        56        17        16        68     9        0.000000        0.032620         1
        56        17        16        68     9      180.000000        0.014450         2
        56        17        16        68     9        0.000000        0.397221         3
        56        17        16        68     9      180.000000        0.013351         4
        56        17        18        57     9        0.000000        0.092902         1
        56        17        18        57     9      180.000000        0.093401         2
        56        17        18        57     9        0.000000        0.416253         3
        56        17        18        57     9      180.000000       -0.035407         4
        57        18        19        58     9        0.000000        0.089169         1
        57        18        19        58     9      180.000000        0.058938         2
        57        18        19        58     9        0.000000        0.395713         3
        57        18        19        58     9      180.000000       -0.024133         4
        57        18        19        59     9        0.000000        0.089169         1
        57        18        19        59     9      180.000000        0.058938         2
        57        18        19        59     9        0.000000        0.395713         3
        57        18        19        59     9      180.000000       -0.024133         4
        58        19        20        60     9        0.000000        0.013546         1
        58        19        20        60     9      180.000000        0.010717         2
        58        19        20        60     9        0.000000        0.296412         3
        58        19        20        60     9      180.000000        0.043706         4
        58        19        20        61     9        0.000000        0.013546         1
        58        19        20        61     9      180.000000        0.010717         2
        58        19        20        61     9        0.000000        0.296412         3
        58        19        20        61     9      180.000000        0.043706         4
        59        19        20        60     9        0.000000        0.013546         1
        59        19        20        60     9      180.000000        0.010717         2
        59        19        20        60     9        0.000000        0.296412         3
        59        19        20        60     9      180.000000        0.043706         4
        59        19        20        61     9        0.000000        0.013546         1
        59        19        20        61     9      180.000000        0.010717         2
        59        19        20        61     9        0.000000        0.296412         3
        59        19        20        61     9      180.000000        0.043706         4

[ dihedrals ] ; impropers
;       ai        aj        ak        al funct           phase               k        pn
         1         3         7        11     4      180.000000        3.382706         2
         1         7        11         3     4      180.000000        3.382706         2
         1        11         3         7     4      180.000000        3.382706         2
         4         3         5        27     4      180.000000        0.114414         2
         4         5        27         3     4      180.000000        0.114414         2
         4        27         3         5     4      180.000000        0.114414         2
         6         5         7        69     4      180.000000        6.071553         2
         6         7        69         5     4      180.000000        6.071553         2
         6        69         5         7     4      180.000000        6.071553         2
        11         1        10        30     4      180.000000        0.197966         2
        11        10        30         1     4      180.000000        0.197966         2
        11        30         1        10     4      180.000000        0.197966         2
        12         5        13        15     4      180.000000       26.088831         2
        12        13        15         5     4      180.000000       26.088831         2
        12        15         5        13     4      180.000000       26.088831         2
        22        21        23        24     4      180.000000       14.088156         2
        22        23        24        21     4      180.000000       14.088156         2
        22        24        21        23     4      180.000000       14.088156         2
        50        18        51        52     4      180.000000       15.867169         2
        50        51        52        18     4      180.000000       15.867169         2
        50        52        18        51     4      180.000000       15.867169         2

[ pairs ]
;       ai        aj funct
         1         2     1
         1         5     1
         1         9     1
         1        27     1
         1        28     1
         1        69     1
         2         8     1
         2        29     1
         2        30     1
         3         6     1
         3        10     1
         3        12     1
         3        29     1
         3        30     1
         4         7     1
         4         9     1
         4        11     1
         4        13     1
         4        15     1
         4        28     1
         4        69     1
         5         8     1
         5        14     1
         5        31     1
         6        11     1
         6        13     1
         6        15     1
         6        27     1
         7         8     1
         7        10     1
         7        12     1
         7        30     1
         8        11     1
         8        27     1
         9        30     1
        10        28     1
        11        29     1
        12        16     1
        12        20     1
        12        27     1
        12        32     1
        12        69     1
        13        17     1
        13        19     1
        13        21     1
        13        60     1
        13        61     1
        13        68     1
        14        15     1
        14        18     1
        14        22     1
        14        33     1
        14        55     1
        14        56     1
        14        58     1
        14        59     1
        15        31     1
        16        19     1
        16        23     1
        16        24     1
        16        31     1
        16        50     1
        16        57     1
        16        60     1
        16        61     1
        17        20     1
        17        22     1
        17        32     1
        17        33     1
        17        51     1
        17        52     1
        17        58     1
        17        59     1
        18        21     1
        18        53     1
        18        54     1
        18        60     1
        18        61     1
        18        68     1
        19        32     1
        19        51     1
        19        52     1
        19        55     1
        19        56     1
        20        21     1
        20        31     1
        20        50     1
        20        57     1
        20        68     1
        21        25     1
        21        26     1
        21        32     1
        21        55     1
        21        56     1
        22        34     1
        22        35     1
        22        68     1
        23        33     1
        23        36     1
        23        39     1
        24        25     1
        24        26     1
        24        33     1
        25        36     1
        25        38     1
        25        45     1
        25        46     1
        26        37     1
        26        39     1
        26        41     1
        26        42     1
        28        29     1
        31        32     1
        32        60     1
        32        61     1
        32        68     1
        33        68     1
        34        37     1
        34        41     1
        34        42     1
        34        43     1
        34        44     1
        35        38     1
        35        40     1
        35        45     1
        35        46     1
        36        39     1
        36        43     1
        36        44     1
        36        47     1
        36        48     1
        36        49     1
        37        45     1
        37        46     1
        38        41     1
        38        42     1
        38        47     1
        38        48     1
        38        49     1
        39        40     1
        40        41     1
        40        42     1
        40        43     1
        40        44     1
        43        45     1
        43        46     1
        44        45     1
        44        46     1
        50        55     1
        50        56     1
        50        58     1
        50        59     1
        50        62     1
        50        63     1
        50        64     1
        50        65     1
        50        66     1
        50        67     1
        51        53     1
        51        54     1
        51        57     1
        52        57     1
        53        65     1
        53        66     1
        53        67     1
        54        62     1
        54        63     1
        54        64     1
        55        57     1
        55        68     1
        56        57     1
        56        68     1
        57        58     1
        57        59     1
        58        60     1
        58        61     1
        59        60     1
        59        61     1
