; ITP file created by ByteFF-ML, 2025-12-06 08:05:45.046402

[ atomtypes ]
;name           bonded.type        at.num        mass        charge   ptype           sigma         epsilon
 c0bf                                   6      0.0000       0.00000       A     3.31402e-01     4.12284e-01
 cl1bf                                 17      0.0000       0.00000       A     3.46707e-01     1.10492e+00
 c2bf                                   6      0.0000       0.00000       A     3.31560e-01     4.13554e-01
 n3bf                                   7      0.0000       0.00000       A     3.38519e-01     3.90922e-01
 c4bf                                   6      0.0000       0.00000       A     3.31084e-01     4.18917e-01
 n5bf                                   7      0.0000       0.00000       A     3.38506e-01     3.92845e-01
 c6bf                                   6      0.0000       0.00000       A     3.31488e-01     4.13018e-01
 c7bf                                   6      0.0000       0.00000       A     3.31517e-01     4.13198e-01
 c8bf                                   6      0.0000       0.00000       A     3.31506e-01     4.12495e-01
 c9bf                                   6      0.0000       0.00000       A     3.31522e-01     4.11958e-01
 c10bf                                  6      0.0000       0.00000       A     3.31490e-01     4.13692e-01
 c11bf                                  6      0.0000       0.00000       A     3.31308e-01     4.12110e-01
 n12bf                                  7      0.0000       0.00000       A     3.26448e-01     4.90237e-01
 c13bf                                  6      0.0000       0.00000       A     3.39890e-01     4.48414e-01
 o14bf                                  8      0.0000       0.00000       A     3.04642e-01     6.08466e-01
 c15bf                                  6      0.0000       0.00000       A     3.39970e-01     4.49282e-01
 c16bf                                  6      0.0000       0.00000       A     3.39695e-01     4.50020e-01
 c17bf                                  6      0.0000       0.00000       A     3.39807e-01     4.51065e-01
 c18bf                                  6      0.0000       0.00000       A     3.39783e-01     4.50599e-01
 c19bf                                  6      0.0000       0.00000       A     3.39773e-01     4.51249e-01
 n20bf                                  7      0.0000       0.00000       A     3.26602e-01     4.88281e-01
 c21bf                                  6      0.0000       0.00000       A     3.31258e-01     4.13621e-01
 c22bf                                  6      0.0000       0.00000       A     3.31371e-01     4.12927e-01
 o23bf                                  8      0.0000       0.00000       A     3.04582e-01     6.10219e-01
 n24bf                                  7      0.0000       0.00000       A     3.38377e-01     3.93517e-01
 s25bf                                 16      0.0000       0.00000       A     3.53468e-01     1.17897e+00
 h26bf                                  1      0.0000       0.00000       A     2.53851e-01     6.77914e-02
 h27bf                                  1      0.0000       0.00000       A     2.62498e-01     6.69120e-02
 h28bf                                  1      0.0000       0.00000       A     2.62498e-01     6.74371e-02
 h29bf                                  1      0.0000       0.00000       A     2.62395e-01     6.73477e-02
 h30bf                                  1      0.0000       0.00000       A     1.10400e-01     3.99608e-02
 h31bf                                  1      0.0000       0.00000       A     2.42179e-01     8.63601e-02
 h32bf                                  1      0.0000       0.00000       A     1.10612e-01     4.02241e-02
 c33bf                                  6      0.0000       0.00000       A     3.31347e-01     4.13267e-01
 c34bf                                  6      0.0000       0.00000       A     3.31421e-01     4.13824e-01
 c35bf                                  6      0.0000       0.00000       A     3.39969e-01     4.50893e-01
 n36bf                                  7      0.0000       0.00000       A     3.36930e-01     3.57427e-01
 c37bf                                  6      0.0000       0.00000       A     3.39827e-01     4.51767e-01
 c38bf                                  6      0.0000       0.00000       A     3.39882e-01     4.51317e-01
 c39bf                                  6      0.0000       0.00000       A     3.39758e-01     4.50040e-01
 h40bf                                  1      0.0000       0.00000       A     2.42170e-01     8.71342e-02
 h41bf                                  1      0.0000       0.00000       A     2.42170e-01     8.71342e-02
 h42bf                                  1      0.0000       0.00000       A     2.42257e-01     8.79530e-02
 h43bf                                  1      0.0000       0.00000       A     2.42257e-01     8.79530e-02
 h44bf                                  1      0.0000       0.00000       A     2.59883e-01     8.84270e-02
 h45bf                                  1      0.0000       0.00000       A     2.59883e-01     8.84270e-02
 h46bf                                  1      0.0000       0.00000       A     2.41989e-01     8.72555e-02
 h47bf                                  1      0.0000       0.00000       A     2.41989e-01     8.72555e-02
 h48bf                                  1      0.0000       0.00000       A     2.41989e-01     8.72555e-02
 c49bf                                  6      0.0000       0.00000       A     3.31656e-01     4.11194e-01
 o50bf                                  8      0.0000       0.00000       A     3.04848e-01     6.12895e-01
 n51bf                                  7      0.0000       0.00000       A     3.18436e-01     6.83644e-01
 c52bf                                  6      0.0000       0.00000       A     3.39787e-01     4.50128e-01
 c53bf                                  6      0.0000       0.00000       A     3.39787e-01     4.50128e-01
 h54bf                                  1      0.0000       0.00000       A     2.59758e-01     8.65469e-02
 h55bf                                  1      0.0000       0.00000       A     2.59758e-01     8.65469e-02
 h56bf                                  1      0.0000       0.00000       A     2.59710e-01     8.69571e-02
 h57bf                                  1      0.0000       0.00000       A     2.59950e-01     8.71566e-02
 h58bf                                  1      0.0000       0.00000       A     2.59950e-01     8.71566e-02
 h59bf                                  1      0.0000       0.00000       A     2.59873e-01     8.66777e-02
 h60bf                                  1      0.0000       0.00000       A     2.59873e-01     8.66777e-02
 h61bf                                  1      0.0000       0.00000       A     2.42033e-01     8.76162e-02
 h62bf                                  1      0.0000       0.00000       A     2.42033e-01     8.76162e-02
 h63bf                                  1      0.0000       0.00000       A     2.42033e-01     8.76162e-02
 h64bf                                  1      0.0000       0.00000       A     2.42033e-01     8.76162e-02
 h65bf                                  1      0.0000       0.00000       A     2.42033e-01     8.76162e-02
 h66bf                                  1      0.0000       0.00000       A     2.42033e-01     8.76162e-02
 h67bf                                  1      0.0000       0.00000       A     2.42061e-01     8.64671e-02

[ moleculetype ]
;name             nrexcl
 5e                    3

[ atoms ]
;       nr            type      resi   res      atom      cgnr      charge          mass ; qtot
         1            c0bf         1   UNL        c0         1    -0.13313       12.0110 ; qtot   -0.133
         2           cl1bf         1   UNL       cl1         2    -0.19351       35.4530 ; qtot   -0.327
         3            c2bf         1   UNL        c2         3     0.02111       12.0110 ; qtot   -0.306
         4            n3bf         1   UNL        n3         4    -0.13229       14.0070 ; qtot   -0.438
         5            c4bf         1   UNL        c4         5     0.08862       12.0110 ; qtot   -0.349
         6            n5bf         1   UNL        n5         6    -0.15504       14.0070 ; qtot   -0.504
         7            c6bf         1   UNL        c6         7     0.14237       12.0110 ; qtot   -0.362
         8            c7bf         1   UNL        c7         8    -0.07707       12.0110 ; qtot   -0.439
         9            c8bf         1   UNL        c8         9    -0.07182       12.0110 ; qtot   -0.511
        10            c9bf         1   UNL        c9        10     0.10949       12.0110 ; qtot   -0.401
        11           c10bf         1   UNL       c10        11    -0.05935       12.0110 ; qtot   -0.461
        12           c11bf         1   UNL       c11        12     0.51826       12.0110 ; qtot    0.058
        13           n12bf         1   UNL       n12        13    -0.48311       14.0070 ; qtot   -0.425
        14           c13bf         1   UNL       c13        14     0.09862       12.0110 ; qtot   -0.327
        15           o14bf         1   UNL       o14        15    -0.57138       15.9990 ; qtot   -0.898
        16           c15bf         1   UNL       c15        16     0.09849       12.0110 ; qtot   -0.800
        17           c16bf         1   UNL       c16        17    -0.07593       12.0110 ; qtot   -0.876
        18           c17bf         1   UNL       c17        18    -0.13491       12.0110 ; qtot   -1.011
        19           c18bf         1   UNL       c18        19    -0.06728       12.0110 ; qtot   -1.078
        20           c19bf         1   UNL       c19        20    -0.08753       12.0110 ; qtot   -1.165
        21           n20bf         1   UNL       n20        21    -0.49001       14.0070 ; qtot   -1.655
        22           c21bf         1   UNL       c21        22     0.53549       12.0110 ; qtot   -1.120
        23           c22bf         1   UNL       c22        23     0.38153       12.0110 ; qtot   -0.738
        24           o23bf         1   UNL       o23        24    -0.58023       15.9990 ; qtot   -1.319
        25           n24bf         1   UNL       n24        25    -0.61219       14.0070 ; qtot   -1.931
        26           s25bf         1   UNL       s25        26     0.02030       32.0670 ; qtot   -1.911
        27           h26bf         1   UNL       h26        27     0.03115        1.0080 ; qtot   -1.879
        28           h27bf         1   UNL       h27        28     0.14554        1.0080 ; qtot   -1.734
        29           h28bf         1   UNL       h28        29     0.13570        1.0080 ; qtot   -1.598
        30           h29bf         1   UNL       h29        30     0.13932        1.0080 ; qtot   -1.459
        31           h30bf         1   UNL       h30        31     0.34551        1.0080 ; qtot   -1.113
        32           h31bf         1   UNL       h31        32     0.07739        1.0080 ; qtot   -1.036
        33           h32bf         1   UNL       h32        33     0.34007        1.0080 ; qtot   -0.696
        34           c33bf         1   UNL       c33        34     0.28744       12.0110 ; qtot   -0.408
        35           c34bf         1   UNL       c34        35    -0.23576       12.0110 ; qtot   -0.644
        36           c35bf         1   UNL       c35        36     0.24225       12.0110 ; qtot   -0.402
        37           n36bf         1   UNL       n36        37    -0.71279       14.0070 ; qtot   -1.115
        38           c37bf         1   UNL       c37        38     0.15975       12.0110 ; qtot   -0.955
        39           c38bf         1   UNL       c38        39    -0.11333       12.0110 ; qtot   -1.068
        40           c39bf         1   UNL       c39        40     0.14641       12.0110 ; qtot   -0.922
        41           h40bf         1   UNL       h40        41     0.05577        1.0080 ; qtot   -0.866
        42           h41bf         1   UNL       h41        42     0.05577        1.0080 ; qtot   -0.810
        43           h42bf         1   UNL       h42        43     0.04433        1.0080 ; qtot   -0.766
        44           h43bf         1   UNL       h43        44     0.04433        1.0080 ; qtot   -0.722
        45           h44bf         1   UNL       h44        45     0.06561        1.0080 ; qtot   -0.656
        46           h45bf         1   UNL       h45        46     0.06561        1.0080 ; qtot   -0.590
        47           h46bf         1   UNL       h46        47     0.03413        1.0080 ; qtot   -0.556
        48           h47bf         1   UNL       h47        48     0.03413        1.0080 ; qtot   -0.522
        49           h48bf         1   UNL       h48        49     0.03413        1.0080 ; qtot   -0.488
        50           c49bf         1   UNL       c49        50     0.60518       12.0110 ; qtot    0.117
        51           o50bf         1   UNL       o50        51    -0.60574       15.9990 ; qtot   -0.489
        52           n51bf         1   UNL       n51        52    -0.42066       14.0070 ; qtot   -0.909
        53           c52bf         1   UNL       c52        53     0.08301       12.0110 ; qtot   -0.826
        54           c53bf         1   UNL       c53        54     0.08301       12.0110 ; qtot   -0.743
        55           h54bf         1   UNL       h54        55     0.06130        1.0080 ; qtot   -0.682
        56           h55bf         1   UNL       h55        56     0.06130        1.0080 ; qtot   -0.621
        57           h56bf         1   UNL       h56        57     0.06316        1.0080 ; qtot   -0.557
        58           h57bf         1   UNL       h57        58     0.05027        1.0080 ; qtot   -0.507
        59           h58bf         1   UNL       h58        59     0.05027        1.0080 ; qtot   -0.457
        60           h59bf         1   UNL       h59        60     0.05517        1.0080 ; qtot   -0.402
        61           h60bf         1   UNL       h60        61     0.05517        1.0080 ; qtot   -0.347
        62           h61bf         1   UNL       h61        62     0.04477        1.0080 ; qtot   -0.302
        63           h62bf         1   UNL       h62        63     0.04477        1.0080 ; qtot   -0.257
        64           h63bf         1   UNL       h63        64     0.04477        1.0080 ; qtot   -0.212
        65           h64bf         1   UNL       h64        65     0.04477        1.0080 ; qtot   -0.168
        66           h65bf         1   UNL       h65        66     0.04477        1.0080 ; qtot   -0.123
        67           h66bf         1   UNL       h66        67     0.04477        1.0080 ; qtot   -0.078
        68           h67bf         1   UNL       h67        68     0.07798        1.0080 ; qtot    0.000

[ bonds ]
;       ai        aj funct               r               k
         1         3     1        0.142661   248630.446045
         1         7     1        0.142122   267890.150879
         1        11     1        0.141822   281570.686816
         2        10     1        0.175287   153488.510327
         3         4     1        0.136167   281870.696777
         3         8     1        0.141984   279365.710645
         4         5     1        0.131875   344423.769580
         5         6     1        0.136472   234194.292578
         5        12     1        0.152444   161326.372705
         6         7     1        0.131669   385169.529980
         7        27     1        0.108957   311066.124756
         8         9     1        0.137946   355477.941504
         8        28     1        0.108483   326034.062988
         9        10     1        0.141815   263969.770459
         9        29     1        0.108469   325115.084570
        10        11     1        0.137729   345450.616748
        11        30     1        0.108492   323969.106787
        12        13     1        0.135791   319322.450977
        12        15     1        0.123030   606532.242285
        13        14     1        0.146097   192081.581787
        13        31     1        0.101548   407373.408154
        14        16     1        0.154772   156431.215283
        14        20     1        0.153897   172850.095459
        14        32     1        0.109305   301805.066504
        16        17     1        0.153890   171755.268506
        16        21     1        0.146250   191046.869189
        16        68     1        0.109290   301765.586133
        17        18     1        0.154579   164893.255688
        17        55     1        0.109326   300596.548340
        17        56     1        0.109326   300596.548340
        18        19     1        0.154661   163666.440186
        18        50     1        0.153191   158389.847729
        18        57     1        0.109414   302100.760693
        19        20     1        0.153693   181138.049390
        19        58     1        0.109447   297470.142188
        19        59     1        0.109447   297470.142188
        20        60     1        0.109408   298814.185791
        20        61     1        0.109408   298814.185791
        21        22     1        0.136095   315450.182471
        21        33     1        0.101409   412617.504639
        22        23     1        0.149761   181928.244165
        22        24     1        0.123205   595504.348047
        23        25     1        0.130744   394780.497705
        23        26     1        0.175753   114860.619019
        25        34     1        0.137483   250388.573877
        26        35     1        0.173418   163411.796899
        34        35     1        0.137232   358668.241504
        34        39     1        0.150284   209899.921094
        35        36     1        0.150545   205958.217187
        36        37     1        0.146468   191918.016602
        36        41     1        0.110015   279945.249805
        36        42     1        0.110015   279945.249805
        37        38     1        0.146781   189560.941406
        37        40     1        0.146077   206296.839258
        38        39     1        0.153813   178870.826514
        38        43     1        0.109814   285833.034668
        38        44     1        0.109814   285833.034668
        39        45     1        0.109539   296322.146973
        39        46     1        0.109539   296322.146973
        40        47     1        0.109765   288786.094922
        40        48     1        0.109765   288786.094922
        40        49     1        0.109765   288786.094922
        50        51     1        0.123512   586720.450684
        50        52     1        0.137606   276714.984229
        52        53     1        0.145947   208517.482446
        52        54     1        0.145947   208517.482446
        53        62     1        0.109324   300806.693213
        53        63     1        0.109324   300806.693213
        53        64     1        0.109324   300806.693213
        54        65     1        0.109324   300806.693213
        54        66     1        0.109324   300806.693213
        54        67     1        0.109324   300806.693213

[ angles ]
;       ai        aj        ak funct           theta             cth
         1         3         4     1      121.058678      827.654587
         1         3         8     1      118.762680      635.596116
         1         7         6     1      122.658302      741.392976
         1         7        27     1      120.111374      419.667215
         1        11        10     1      118.917099      483.972753
         1        11        30     1      120.305748      426.274495
         2        10         9     1      118.504028      403.691072
         2        10        11     1      120.043457      331.103562
         3         1         7     1      115.741516      744.017553
         3         1        11     1      120.456299      749.703773
         3         4         5     1      116.985123      538.919515
         3         8         9     1      120.271301      600.809593
         3         8        28     1      118.336380      450.281038
         4         3         8     1      119.819984      434.834503
         4         5         6     1      126.702469      656.561253
         4         5        12     1      117.136978      398.483704
         5         6         7     1      116.527184      786.286576
         5        12        13     1      113.144676      491.619138
         5        12        15     1      121.847046      608.822500
         6         5        12     1      116.186813      479.198048
         6         7        27     1      117.066444      427.409811
         7         1        11     1      123.785057      425.647368
         8         9        10     1      120.006210      645.214540
         8         9        29     1      120.793556      425.529642
         9         8        28     1      121.269447      421.974046
         9        10        11     1      121.446777      632.787225
        10         9        29     1      119.392677      441.478205
        10        11        30     1      120.706253      428.265815
        12        13        14     1      123.176346      522.633383
        12        13        31     1      115.933815      439.791990
        13        12        15     1      125.149757      595.082513
        13        14        16     1      111.168747      547.906534
        13        14        20     1      111.673508      631.280025
        13        14        32     1      106.340027      527.688518
        14        13        31     1      119.211914      372.145911
        14        16        17     1      110.952293      562.647256
        14        16        21     1      111.207565      547.431736
        14        16        68     1      107.750572      470.547128
        14        20        19     1      111.594849      623.541132
        14        20        60     1      108.976295      496.210902
        14        20        61     1      108.976295      496.210902
        16        14        20     1      110.852539      553.560770
        16        14        32     1      107.714134      472.386981
        16        17        18     1      111.939430      596.757301
        16        17        55     1      109.082336      493.142969
        16        17        56     1      109.082336      493.142969
        16        21        22     1      123.281532      523.533821
        16        21        33     1      117.985329      388.342599
        17        16        21     1      111.416893      612.846063
        17        16        68     1      108.673912      471.627763
        17        18        19     1      110.560959      569.917990
        17        18        50     1      110.802452      642.130488
        17        18        57     1      107.640671      495.211858
        18        17        55     1      109.789185      465.155383
        18        17        56     1      109.789185      465.155383
        18        19        20     1      111.603378      627.166571
        18        19        58     1      109.459435      468.787845
        18        19        59     1      109.459435      468.787845
        18        50        51     1      120.367775      453.866799
        18        50        52     1      118.348633      449.080890
        19        18        50     1      111.026161      653.509377
        19        18        57     1      107.798851      493.236244
        19        20        60     1      109.998474      502.411408
        19        20        61     1      109.998474      502.411408
        20        14        32     1      108.847130      471.220702
        20        19        58     1      109.708351      513.116564
        20        19        59     1      109.708351      513.116564
        21        16        68     1      106.369919      527.599138
        21        22        23     1      114.245560      430.111414
        21        22        24     1      124.890869      615.174089
        22        21        33     1      117.270615      420.964947
        22        23        25     1      124.340652      359.309363
        22        23        26     1      120.844772      468.365589
        23        22        24     1      120.964073      537.680773
        23        25        34     1      111.406593      328.705787
        23        26        35     1       88.551132      167.360000
        25        23        26     1      114.891418      167.360000
        25        34        35     1      115.272217      312.892220
        25        34        39     1      122.848999      461.667684
        26        35        34     1      110.263878      167.360000
        26        35        36     1      125.788002      401.332369
        34        35        36     1      123.996292      562.620314
        34        39        38     1      109.429955      644.587349
        34        39        45     1      109.759384      484.571854
        34        39        46     1      109.759384      484.571854
        35        34        39     1      121.676254      406.530862
        35        36        37     1      110.200546      563.933816
        35        36        41     1      110.205734      462.983196
        35        36        42     1      110.205734      462.983196
        36        37        38     1      111.045578      613.756014
        36        37        40     1      111.203835      630.245325
        37        36        41     1      109.551048      459.134690
        37        36        42     1      109.551048      459.134690
        37        38        39     1      112.270889      625.644432
        37        38        43     1      109.041969      476.770682
        37        38        44     1      109.041969      476.770682
        37        40        47     1      110.858498      481.423224
        37        40        48     1      110.858498      481.423224
        37        40        49     1      110.858498      481.423224
        38        37        40     1      112.192528      649.121399
        38        39        45     1      110.261795      502.853519
        38        39        46     1      110.261795      502.853519
        39        38        43     1      109.631447      493.664916
        39        38        44     1      109.631447      493.664916
        41        36        42     1      106.585083      354.341693
        43        38        44     1      107.114723      348.812845
        45        39        46     1      106.901878      363.316136
        47        40        48     1      108.062943      347.504005
        47        40        49     1      108.062943      347.504005
        48        40        49     1      108.062943      347.504005
        50        18        57     1      108.212730      515.178845
        50        52        53     1      122.129654      505.902714
        50        52        54     1      122.129654      505.902714
        51        50        52     1      121.081711      636.267423
        52        53        62     1      110.326584      477.859265
        52        53        63     1      110.326584      477.859265
        52        53        64     1      110.326584      477.859329
        52        54        65     1      110.326584      477.859265
        52        54        66     1      110.326584      477.859265
        52        54        67     1      110.326584      477.859265
        53        52        54     1      114.947632      573.331217
        55        17        56     1      107.084274      355.159487
        58        19        59     1      106.645180      359.821255
        60        20        61     1      106.839844      356.387024
        62        53        63     1      108.724693      349.793087
        62        53        64     1      108.724693      349.793087
        63        53        64     1      108.724693      349.793087
        65        54        66     1      108.724693      349.793087
        65        54        67     1      108.724709      349.793087
        66        54        67     1      108.724693      349.793087

[ dihedrals ] ; propers for gromacs 4.5 or higher, use funct 9
;       ai        aj        ak        al funct           phase               k        pn
         1         3         4         5     9        0.000000       -0.718881         1
         1         3         4         5     9      180.000000       16.009672         2
         1         3         4         5     9        0.000000       -1.076443         3
         1         3         4         5     9      180.000000       -0.422984         4
         1         3         8         9     9        0.000000       -0.279956         1
         1         3         8         9     9      180.000000       16.014321         2
         1         3         8         9     9        0.000000       -0.951689         3
         1         3         8         9     9      180.000000       -0.266115         4
         1         3         8        28     9        0.000000       -0.208506         1
         1         3         8        28     9      180.000000       12.285641         2
         1         3         8        28     9        0.000000       -0.124193         3
         1         3         8        28     9      180.000000       -0.038573         4
         1         7         6         5     9        0.000000       -0.787784         1
         1         7         6         5     9      180.000000       23.003744         2
         1         7         6         5     9        0.000000       -1.413578         3
         1         7         6         5     9      180.000000       -0.332868         4
         1        11        10         2     9        0.000000        0.105750         1
         1        11        10         2     9      180.000000       22.457861         2
         1        11        10         2     9        0.000000        0.250005         3
         1        11        10         2     9      180.000000       -1.043409         4
         1        11        10         9     9        0.000000       -0.123117         1
         1        11        10         9     9      180.000000       19.795709         2
         1        11        10         9     9        0.000000       -1.399516         3
         1        11        10         9     9      180.000000       -0.548186         4
         2        10         9         8     9        0.000000        0.333836         1
         2        10         9         8     9      180.000000       16.490926         2
         2        10         9         8     9        0.000000        0.238193         3
         2        10         9         8     9      180.000000       -0.427947         4
         2        10         9        29     9        0.000000        0.141877         1
         2        10         9        29     9      180.000000       12.280431         2
         2        10         9        29     9        0.000000       -0.158241         3
         2        10         9        29     9      180.000000        0.222878         4
         2        10        11        30     9        0.000000        0.062282         1
         2        10        11        30     9      180.000000       14.378143         2
         2        10        11        30     9        0.000000       -0.045541         3
         2        10        11        30     9      180.000000        0.295182         4
         3         1         7         6     9        0.000000        0.013449         1
         3         1         7         6     9      180.000000       12.967726         2
         3         1         7         6     9        0.000000       -0.156336         3
         3         1         7         6     9      180.000000       -0.255994         4
         3         1         7        27     9        0.000000        0.074663         1
         3         1         7        27     9      180.000000       11.587729         2
         3         1         7        27     9        0.000000       -0.167066         3
         3         1         7        27     9      180.000000       -0.156224         4
         3         1        11        10     9        0.000000       -0.177057         1
         3         1        11        10     9      180.000000       16.059190         2
         3         1        11        10     9        0.000000       -1.017784         3
         3         1        11        10     9      180.000000       -0.284781         4
         3         1        11        30     9        0.000000       -0.084790         1
         3         1        11        30     9      180.000000       12.087405         2
         3         1        11        30     9        0.000000       -0.506078         3
         3         1        11        30     9      180.000000        0.050743         4
         3         4         5         6     9        0.000000        0.032566         1
         3         4         5         6     9      180.000000       20.578214         2
         3         4         5         6     9        0.000000        0.485852         3
         3         4         5         6     9      180.000000       -0.543234         4
         3         4         5        12     9        0.000000        0.973233         1
         3         4         5        12     9      180.000000       21.060460         2
         3         4         5        12     9        0.000000        0.772738         3
         3         4         5        12     9      180.000000       -1.178842         4
         3         8         9        10     9        0.000000       -0.062819         1
         3         8         9        10     9      180.000000       20.548786         2
         3         8         9        10     9        0.000000       -1.314095         3
         3         8         9        10     9      180.000000       -0.464260         4
         3         8         9        29     9        0.000000        0.119611         1
         3         8         9        29     9      180.000000       16.425555         2
         3         8         9        29     9        0.000000       -0.399005         3
         3         8         9        29     9      180.000000       -0.012916         4
         4         3         1         7     9        0.000000       -0.102348         1
         4         3         1         7     9      180.000000       11.015146         2
         4         3         1         7     9        0.000000       -0.182618         3
         4         3         1         7     9      180.000000       -0.256869         4
         4         3         1        11     9        0.000000       -0.016139         1
         4         3         1        11     9      180.000000       11.546055         2
         4         3         1        11     9        0.000000       -0.262156         3
         4         3         1        11     9      180.000000       -0.311457         4
         4         3         8         9     9        0.000000        0.166640         1
         4         3         8         9     9      180.000000       14.669470         2
         4         3         8         9     9        0.000000       -0.166562         3
         4         3         8         9     9      180.000000       -0.388083         4
         4         3         8        28     9        0.000000       -0.133280         1
         4         3         8        28     9      180.000000       12.875318         2
         4         3         8        28     9        0.000000       -0.211918         3
         4         3         8        28     9      180.000000       -0.090352         4
         4         5         6         7     9        0.000000       -0.531721         1
         4         5         6         7     9      180.000000       11.956140         2
         4         5         6         7     9        0.000000        0.473524         3
         4         5         6         7     9      180.000000       -0.167873         4
         4         5        12        13     9        0.000000       -1.325420         1
         4         5        12        13     9      180.000000        3.672551         2
         4         5        12        13     9        0.000000       -0.219611         3
         4         5        12        13     9      180.000000        0.150548         4
         4         5        12        15     9        0.000000        0.405215         1
         4         5        12        15     9      180.000000        2.421983         2
         4         5        12        15     9        0.000000        0.014282         3
         4         5        12        15     9      180.000000        0.095089         4
         5         4         3         8     9        0.000000       -0.470086         1
         5         4         3         8     9      180.000000       14.380427         2
         5         4         3         8     9        0.000000       -0.115319         3
         5         4         3         8     9      180.000000       -0.302970         4
         5         6         7        27     9        0.000000        0.464799         1
         5         6         7        27     9      180.000000       20.699174         2
         5         6         7        27     9        0.000000       -0.116976         3
         5         6         7        27     9      180.000000       -0.339784         4
         5        12        13        14     9        0.000000       -1.207436         1
         5        12        13        14     9      180.000000       11.593423         2
         5        12        13        14     9        0.000000       -0.083575         3
         5        12        13        14     9      180.000000       -0.464867         4
         5        12        13        31     9        0.000000       -4.258205         1
         5        12        13        31     9      180.000000        9.749020         2
         5        12        13        31     9        0.000000       -0.379415         3
         5        12        13        31     9      180.000000        0.075962         4
         6         5        12        13     9        0.000000       -0.770938         1
         6         5        12        13     9      180.000000        4.109938         2
         6         5        12        13     9        0.000000       -0.301525         3
         6         5        12        13     9      180.000000        0.225166         4
         6         5        12        15     9        0.000000        0.130178         1
         6         5        12        15     9      180.000000        2.635656         2
         6         5        12        15     9        0.000000        0.332209         3
         6         5        12        15     9      180.000000        0.079383         4
         6         7         1        11     9        0.000000       -0.156943         1
         6         7         1        11     9      180.000000       11.541986         2
         6         7         1        11     9        0.000000       -0.083854         3
         6         7         1        11     9      180.000000       -0.229244         4
         7         1         3         8     9        0.000000        0.143521         1
         7         1         3         8     9      180.000000       10.481723         2
         7         1         3         8     9        0.000000       -0.910734         3
         7         1         3         8     9      180.000000       -0.105306         4
         7         1        11        10     9        0.000000       -0.016731         1
         7         1        11        10     9      180.000000       12.553187         2
         7         1        11        10     9        0.000000       -0.986705         3
         7         1        11        10     9      180.000000       -0.087622         4
         7         1        11        30     9        0.000000       -0.092496         1
         7         1        11        30     9      180.000000       10.140654         2
         7         1        11        30     9        0.000000       -0.407664         3
         7         1        11        30     9      180.000000       -0.017246         4
         7         6         5        12     9        0.000000        1.222426         1
         7         6         5        12     9      180.000000       14.033961         2
         7         6         5        12     9        0.000000        0.847906         3
         7         6         5        12     9      180.000000       -0.786032         4
         8         3         1        11     9        0.000000        0.135326         1
         8         3         1        11     9      180.000000       11.231144         2
         8         3         1        11     9        0.000000       -0.853054         3
         8         3         1        11     9      180.000000       -0.216544         4
         8         9        10        11     9        0.000000       -0.068853         1
         8         9        10        11     9      180.000000       15.369600         2
         8         9        10        11     9        0.000000       -1.020337         3
         8         9        10        11     9      180.000000       -0.272994         4
         9        10        11        30     9        0.000000       -0.073741         1
         9        10        11        30     9      180.000000       14.582685         2
         9        10        11        30     9        0.000000       -0.472219         3
         9        10        11        30     9      180.000000        0.076190         4
        10         9         8        28     9        0.000000        0.019193         1
        10         9         8        28     9      180.000000       15.749613         2
        10         9         8        28     9        0.000000       -0.479731         3
        10         9         8        28     9      180.000000        0.182504         4
        11         1         7        27     9        0.000000        0.008706         1
        11         1         7        27     9      180.000000        9.826454         2
        11         1         7        27     9        0.000000       -0.146070         3
        11         1         7        27     9      180.000000        0.020954         4
        11        10         9        29     9        0.000000       -0.131323         1
        11        10         9        29     9      180.000000       12.297043         2
        11        10         9        29     9        0.000000       -0.542238         3
        11        10         9        29     9      180.000000        0.063864         4
        12        13        14        16     9        0.000000        1.055038         1
        12        13        14        16     9      180.000000       -0.391789         2
        12        13        14        16     9        0.000000        0.243966         3
        12        13        14        16     9      180.000000        0.295985         4
        12        13        14        20     9        0.000000       -0.093812         1
        12        13        14        20     9      180.000000       -0.154939         2
        12        13        14        20     9        0.000000        0.208926         3
        12        13        14        20     9      180.000000        0.107557         4
        12        13        14        32     9        0.000000       -0.053778         1
        12        13        14        32     9      180.000000        0.004187         2
        12        13        14        32     9        0.000000        0.066335         3
        12        13        14        32     9      180.000000        0.142219         4
        13        14        16        17     9        0.000000       -0.808356         1
        13        14        16        17     9      180.000000        0.140180         2
        13        14        16        17     9        0.000000        0.087823         3
        13        14        16        17     9      180.000000        0.275447         4
        13        14        16        21     9        0.000000        2.282524         1
        13        14        16        21     9      180.000000        0.038461         2
        13        14        16        21     9        0.000000       -0.478825         3
        13        14        16        21     9      180.000000        0.154647         4
        13        14        16        68     9        0.000000       -0.335125         1
        13        14        16        68     9      180.000000        0.036525         2
        13        14        16        68     9        0.000000        0.353394         3
        13        14        16        68     9      180.000000       -0.032825         4
        13        14        20        19     9        0.000000       -0.568594         1
        13        14        20        19     9      180.000000        0.737951         2
        13        14        20        19     9        0.000000        0.177065         3
        13        14        20        19     9      180.000000        0.132205         4
        13        14        20        60     9        0.000000        0.121310         1
        13        14        20        60     9      180.000000        0.090298         2
        13        14        20        60     9        0.000000        0.366111         3
        13        14        20        60     9      180.000000       -0.086687         4
        13        14        20        61     9        0.000000        0.121310         1
        13        14        20        61     9      180.000000        0.090298         2
        13        14        20        61     9        0.000000        0.366111         3
        13        14        20        61     9      180.000000       -0.086687         4
        14        13        12        15     9        0.000000        0.308477         1
        14        13        12        15     9      180.000000       11.885173         2
        14        13        12        15     9        0.000000        0.625751         3
        14        13        12        15     9      180.000000       -1.392866         4
        14        16        17        18     9        0.000000        3.461263         1
        14        16        17        18     9      180.000000       -1.787182         2
        14        16        17        18     9        0.000000       -0.101067         3
        14        16        17        18     9      180.000000        0.002405         4
        14        16        17        55     9        0.000000       -0.109703         1
        14        16        17        55     9      180.000000        0.064866         2
        14        16        17        55     9        0.000000        0.166237         3
        14        16        17        55     9      180.000000        0.050319         4
        14        16        17        56     9        0.000000       -0.109703         1
        14        16        17        56     9      180.000000        0.064866         2
        14        16        17        56     9        0.000000        0.166237         3
        14        16        17        56     9      180.000000        0.050319         4
        14        16        21        22     9        0.000000        1.021251         1
        14        16        21        22     9      180.000000       -0.443538         2
        14        16        21        22     9        0.000000        0.342278         3
        14        16        21        22     9      180.000000        0.181120         4
        14        16        21        33     9        0.000000        0.577093         1
        14        16        21        33     9      180.000000       -1.108084         2
        14        16        21        33     9        0.000000        0.540540         3
        14        16        21        33     9      180.000000        0.017416         4
        14        20        19        18     9        0.000000        1.315736         1
        14        20        19        18     9      180.000000       -1.627406         2
        14        20        19        18     9        0.000000        0.190171         3
        14        20        19        18     9      180.000000        0.079522         4
        14        20        19        58     9        0.000000       -0.098051         1
        14        20        19        58     9      180.000000        0.068663         2
        14        20        19        58     9        0.000000        0.235615         3
        14        20        19        58     9      180.000000        0.022554         4
        14        20        19        59     9        0.000000       -0.098051         1
        14        20        19        59     9      180.000000        0.068663         2
        14        20        19        59     9        0.000000        0.235615         3
        14        20        19        59     9      180.000000        0.022554         4
        15        12        13        31     9        0.000000        0.685943         1
        15        12        13        31     9      180.000000       11.676245         2
        15        12        13        31     9        0.000000       -0.059369         3
        15        12        13        31     9      180.000000        0.540689         4
        16        14        13        31     9        0.000000        0.334944         1
        16        14        13        31     9      180.000000       -1.212767         2
        16        14        13        31     9        0.000000        0.512030         3
        16        14        13        31     9      180.000000        0.003031         4
        16        14        20        19     9        0.000000        2.722461         1
        16        14        20        19     9      180.000000       -1.667205         2
        16        14        20        19     9        0.000000        0.039815         3
        16        14        20        19     9      180.000000        0.053473         4
        16        14        20        60     9        0.000000       -0.100709         1
        16        14        20        60     9      180.000000        0.062048         2
        16        14        20        60     9        0.000000        0.183119         3
        16        14        20        60     9      180.000000        0.054266         4
        16        14        20        61     9        0.000000       -0.100709         1
        16        14        20        61     9      180.000000        0.062048         2
        16        14        20        61     9        0.000000        0.183119         3
        16        14        20        61     9      180.000000        0.054266         4
        16        17        18        19     9        0.000000        2.167701         1
        16        17        18        19     9      180.000000       -2.095071         2
        16        17        18        19     9        0.000000        0.100990         3
        16        17        18        19     9      180.000000       -0.067359         4
        16        17        18        50     9        0.000000       -0.969890         1
        16        17        18        50     9      180.000000       -0.492010         2
        16        17        18        50     9        0.000000        0.043330         3
        16        17        18        50     9      180.000000        0.044241         4
        16        17        18        57     9        0.000000       -0.731592         1
        16        17        18        57     9      180.000000        0.097424         2
        16        17        18        57     9        0.000000        0.165659         3
        16        17        18        57     9      180.000000        0.052140         4
        16        21        22        23     9        0.000000        1.551351         1
        16        21        22        23     9      180.000000       10.806241         2
        16        21        22        23     9        0.000000        0.659059         3
        16        21        22        23     9      180.000000       -0.282031         4
        16        21        22        24     9        0.000000       -0.687196         1
        16        21        22        24     9      180.000000       10.163927         2
        16        21        22        24     9        0.000000        0.483358         3
        16        21        22        24     9      180.000000       -1.334168         4
        17        16        14        20     9        0.000000        3.516064         1
        17        16        14        20     9      180.000000       -1.680741         2
        17        16        14        20     9        0.000000        0.074658         3
        17        16        14        20     9      180.000000       -0.002330         4
        17        16        14        32     9        0.000000       -0.367606         1
        17        16        14        32     9      180.000000        0.083925         2
        17        16        14        32     9        0.000000        0.307155         3
        17        16        14        32     9      180.000000        0.052594         4
        17        16        21        22     9        0.000000       -0.005175         1
        17        16        21        22     9      180.000000       -0.401672         2
        17        16        21        22     9        0.000000        0.370215         3
        17        16        21        22     9      180.000000        0.053218         4
        17        16        21        33     9        0.000000       -0.136586         1
        17        16        21        33     9      180.000000       -0.353037         2
        17        16        21        33     9        0.000000        0.351756         3
        17        16        21        33     9      180.000000       -0.038850         4
        17        18        19        20     9        0.000000        0.883010         1
        17        18        19        20     9      180.000000       -1.399872         2
        17        18        19        20     9        0.000000        0.314248         3
        17        18        19        20     9      180.000000       -0.050797         4
        17        18        19        58     9        0.000000       -0.056826         1
        17        18        19        58     9      180.000000        0.050149         2
        17        18        19        58     9        0.000000        0.270717         3
        17        18        19        58     9      180.000000        0.019384         4
        17        18        19        59     9        0.000000       -0.056826         1
        17        18        19        59     9      180.000000        0.050149         2
        17        18        19        59     9        0.000000        0.270717         3
        17        18        19        59     9      180.000000        0.019384         4
        17        18        50        51     9        0.000000       -0.455386         1
        17        18        50        51     9      180.000000        0.737900         2
        17        18        50        51     9        0.000000        0.287526         3
        17        18        50        51     9      180.000000        0.250951         4
        17        18        50        52     9        0.000000        0.270994         1
        17        18        50        52     9      180.000000        1.080078         2
        17        18        50        52     9        0.000000       -0.027563         3
        17        18        50        52     9      180.000000        0.001527         4
        18        17        16        21     9        0.000000       -0.378319         1
        18        17        16        21     9      180.000000        0.218820         2
        18        17        16        21     9        0.000000        0.056326         3
        18        17        16        21     9      180.000000        0.226509         4
        18        17        16        68     9        0.000000       -0.669048         1
        18        17        16        68     9      180.000000        0.139249         2
        18        17        16        68     9        0.000000        0.154171         3
        18        17        16        68     9      180.000000        0.076395         4
        18        19        20        60     9        0.000000       -0.080258         1
        18        19        20        60     9      180.000000        0.083233         2
        18        19        20        60     9        0.000000        0.213417         3
        18        19        20        60     9      180.000000        0.012387         4
        18        19        20        61     9        0.000000       -0.080258         1
        18        19        20        61     9      180.000000        0.083233         2
        18        19        20        61     9        0.000000        0.213417         3
        18        19        20        61     9      180.000000        0.012387         4
        18        50        52        53     9        0.000000        7.685850         1
        18        50        52        53     9      180.000000       10.413246         2
        18        50        52        53     9        0.000000        0.340038         3
        18        50        52        53     9      180.000000       -0.442447         4
        18        50        52        54     9        0.000000        7.685850         1
        18        50        52        54     9      180.000000       10.413246         2
        18        50        52        54     9        0.000000        0.340038         3
        18        50        52        54     9      180.000000       -0.442447         4
        19        18        17        55     9        0.000000       -0.052172         1
        19        18        17        55     9      180.000000        0.058083         2
        19        18        17        55     9        0.000000        0.229959         3
        19        18        17        55     9      180.000000        0.057798         4
        19        18        17        56     9        0.000000       -0.052172         1
        19        18        17        56     9      180.000000        0.058083         2
        19        18        17        56     9        0.000000        0.229959         3
        19        18        17        56     9      180.000000        0.057798         4
        19        18        50        51     9        0.000000       -0.698289         1
        19        18        50        51     9      180.000000        0.744054         2
        19        18        50        51     9        0.000000        0.336890         3
        19        18        50        51     9      180.000000        0.225666         4
        19        18        50        52     9        0.000000        0.291846         1
        19        18        50        52     9      180.000000        1.098654         2
        19        18        50        52     9        0.000000        0.042828         3
        19        18        50        52     9      180.000000       -0.012816         4
        19        20        14        32     9        0.000000       -0.421419         1
        19        20        14        32     9      180.000000        0.168268         2
        19        20        14        32     9        0.000000        0.249765         3
        19        20        14        32     9      180.000000        0.019942         4
        20        14        13        31     9        0.000000        0.010978         1
        20        14        13        31     9      180.000000       -0.074678         2
        20        14        13        31     9        0.000000        0.320901         3
        20        14        13        31     9      180.000000       -0.070278         4
        20        14        16        21     9        0.000000       -0.416275         1
        20        14        16        21     9      180.000000        0.257142         2
        20        14        16        21     9        0.000000        0.137010         3
        20        14        16        21     9      180.000000        0.208112         4
        20        14        16        68     9        0.000000       -0.379461         1
        20        14        16        68     9      180.000000        0.113809         2
        20        14        16        68     9        0.000000        0.316119         3
        20        14        16        68     9      180.000000        0.046831         4
        20        19        18        50     9        0.000000       -1.205837         1
        20        19        18        50     9      180.000000       -0.024594         2
        20        19        18        50     9        0.000000        0.127041         3
        20        19        18        50     9      180.000000        0.096010         4
        20        19        18        57     9        0.000000       -0.470892         1
        20        19        18        57     9      180.000000        0.118851         2
        20        19        18        57     9        0.000000        0.267874         3
        20        19        18        57     9      180.000000        0.031479         4
        21        16        14        32     9        0.000000       -0.392669         1
        21        16        14        32     9      180.000000        0.030220         2
        21        16        14        32     9        0.000000        0.353421         3
        21        16        14        32     9      180.000000       -0.015206         4
        21        16        17        55     9        0.000000        0.122902         1
        21        16        17        55     9      180.000000        0.128407         2
        21        16        17        55     9        0.000000        0.386720         3
        21        16        17        55     9      180.000000       -0.072984         4
        21        16        17        56     9        0.000000        0.122902         1
        21        16        17        56     9      180.000000        0.128407         2
        21        16        17        56     9        0.000000        0.386720         3
        21        16        17        56     9      180.000000       -0.072984         4
        21        22        23        25     9        0.000000        2.923749         1
        21        22        23        25     9      180.000000        2.022095         2
        21        22        23        25     9        0.000000        0.151149         3
        21        22        23        25     9      180.000000       -0.373995         4
        21        22        23        26     9        0.000000       -0.304414         1
        21        22        23        26     9      180.000000        3.200684         2
        21        22        23        26     9        0.000000        0.463910         3
        21        22        23        26     9      180.000000       -0.514292         4
        22        21        16        68     9        0.000000        0.020172         1
        22        21        16        68     9      180.000000        0.144925         2
        22        21        16        68     9        0.000000        0.214736         3
        22        21        16        68     9      180.000000        0.179789         4
        22        23        25        34     9        0.000000        0.509539         1
        22        23        25        34     9      180.000000       28.889665         2
        22        23        25        34     9        0.000000        0.564950         3
        22        23        25        34     9      180.000000       -0.961131         4
        22        23        26        35     9        0.000000       -1.127037         1
        22        23        26        35     9      180.000000       15.581777         2
        22        23        26        35     9        0.000000       -0.036420         3
        22        23        26        35     9      180.000000       -0.602861         4
        23        22        21        33     9        0.000000       -0.415752         1
        23        22        21        33     9      180.000000        9.010384         2
        23        22        21        33     9        0.000000        0.175298         3
        23        22        21        33     9      180.000000       -0.065606         4
        23        25        34        35     9        0.000000       -0.228535         1
        23        25        34        35     9      180.000000       27.756785         2
        23        25        34        35     9        0.000000       -2.863850         3
        23        25        34        35     9      180.000000       -0.158646         4
        23        25        34        39     9        0.000000        0.109642         1
        23        25        34        39     9      180.000000       22.524852         2
        23        25        34        39     9        0.000000        0.728535         3
        23        25        34        39     9      180.000000       -0.420500         4
        23        26        35        34     9        0.000000        0.019507         1
        23        26        35        34     9      180.000000       29.322726         2
        23        26        35        34     9        0.000000       -6.425576         3
        23        26        35        34     9      180.000000       -0.474428         4
        23        26        35        36     9        0.000000        0.448650         1
        23        26        35        36     9      180.000000       11.835073         2
        23        26        35        36     9        0.000000        0.424426         3
        23        26        35        36     9      180.000000       -0.134990         4
        24        22        21        33     9        0.000000       -0.005332         1
        24        22        21        33     9      180.000000       10.730372         2
        24        22        21        33     9        0.000000       -0.060300         3
        24        22        21        33     9      180.000000       -0.147584         4
        24        22        23        25     9        0.000000       -1.392140         1
        24        22        23        25     9      180.000000        3.582888         2
        24        22        23        25     9        0.000000        0.461599         3
        24        22        23        25     9      180.000000        0.214010         4
        24        22        23        26     9        0.000000        0.210149         1
        24        22        23        26     9      180.000000        4.370762         2
        24        22        23        26     9        0.000000       -0.343613         3
        24        22        23        26     9      180.000000        0.218765         4
        25        23        26        35     9        0.000000       -0.590193         1
        25        23        26        35     9      180.000000       31.322398         2
        25        23        26        35     9        0.000000       -5.851399         3
        25        23        26        35     9      180.000000       -0.585767         4
        25        34        35        26     9        0.000000       -0.800174         1
        25        34        35        26     9      180.000000       28.383673         2
        25        34        35        26     9        0.000000       -5.049933         3
        25        34        35        26     9      180.000000       -1.030530         4
        25        34        35        36     9        0.000000        0.006237         1
        25        34        35        36     9      180.000000       19.786124         2
        25        34        35        36     9        0.000000       -0.767005         3
        25        34        35        36     9      180.000000       -1.000863         4
        25        34        39        38     9        0.000000       -1.761287         1
        25        34        39        38     9      180.000000       -0.518566         2
        25        34        39        38     9        0.000000        0.250165         3
        25        34        39        38     9      180.000000        0.137553         4
        25        34        39        45     9        0.000000        0.061059         1
        25        34        39        45     9      180.000000        0.031081         2
        25        34        39        45     9        0.000000        0.254497         3
        25        34        39        45     9      180.000000       -0.033807         4
        25        34        39        46     9        0.000000        0.061059         1
        25        34        39        46     9      180.000000        0.031081         2
        25        34        39        46     9        0.000000        0.254497         3
        25        34        39        46     9      180.000000       -0.033807         4
        26        23        25        34     9        0.000000       -0.414856         1
        26        23        25        34     9      180.000000       36.017356         2
        26        23        25        34     9        0.000000       -4.165866         3
        26        23        25        34     9      180.000000        0.025250         4
        26        35        34        39     9        0.000000        0.102614         1
        26        35        34        39     9      180.000000       18.114968         2
        26        35        34        39     9        0.000000       -0.791874         3
        26        35        34        39     9      180.000000       -0.971119         4
        26        35        36        37     9        0.000000       -3.606837         1
        26        35        36        37     9      180.000000       -0.362514         2
        26        35        36        37     9        0.000000        0.387711         3
        26        35        36        37     9      180.000000        0.164191         4
        26        35        36        41     9        0.000000        0.050382         1
        26        35        36        41     9      180.000000        0.088073         2
        26        35        36        41     9        0.000000        0.411892         3
        26        35        36        41     9      180.000000       -0.037587         4
        26        35        36        42     9        0.000000        0.050382         1
        26        35        36        42     9      180.000000        0.088073         2
        26        35        36        42     9        0.000000        0.411892         3
        26        35        36        42     9      180.000000       -0.037587         4
        28         8         9        29     9        0.000000       -0.147107         1
        28         8         9        29     9      180.000000       12.741266         2
        28         8         9        29     9        0.000000       -0.743448         3
        28         8         9        29     9      180.000000        0.383338         4
        31        13        14        32     9        0.000000       -0.772527         1
        31        13        14        32     9      180.000000        0.103075         2
        31        13        14        32     9        0.000000        0.518330         3
        31        13        14        32     9      180.000000        0.175745         4
        32        14        16        68     9        0.000000        0.156807         1
        32        14        16        68     9      180.000000       -0.170373         2
        32        14        16        68     9        0.000000        0.422419         3
        32        14        16        68     9      180.000000       -0.050893         4
        32        14        20        60     9        0.000000        0.032408         1
        32        14        20        60     9      180.000000        0.012052         2
        32        14        20        60     9        0.000000        0.374007         3
        32        14        20        60     9      180.000000        0.011825         4
        32        14        20        61     9        0.000000        0.032408         1
        32        14        20        61     9      180.000000        0.012052         2
        32        14        20        61     9        0.000000        0.374007         3
        32        14        20        61     9      180.000000        0.011825         4
        33        21        16        68     9        0.000000       -0.794086         1
        33        21        16        68     9      180.000000        0.147692         2
        33        21        16        68     9        0.000000        0.562941         3
        33        21        16        68     9      180.000000        0.176200         4
        34        35        36        37     9        0.000000       -3.311658         1
        34        35        36        37     9      180.000000        0.893056         2
        34        35        36        37     9        0.000000       -0.312861         3
        34        35        36        37     9      180.000000        0.089561         4
        34        35        36        41     9        0.000000       -0.010515         1
        34        35        36        41     9      180.000000       -0.166834         2
        34        35        36        41     9        0.000000       -0.357655         3
        34        35        36        41     9      180.000000       -0.002483         4
        34        35        36        42     9        0.000000       -0.010515         1
        34        35        36        42     9      180.000000       -0.166834         2
        34        35        36        42     9        0.000000       -0.357655         3
        34        35        36        42     9      180.000000       -0.002483         4
        34        39        38        37     9        0.000000       -1.384129         1
        34        39        38        37     9      180.000000       -0.653292         2
        34        39        38        37     9        0.000000        0.502380         3
        34        39        38        37     9      180.000000       -0.119672         4
        34        39        38        43     9        0.000000        0.056682         1
        34        39        38        43     9      180.000000        0.029063         2
        34        39        38        43     9        0.000000        0.464816         3
        34        39        38        43     9      180.000000        0.029460         4
        34        39        38        44     9        0.000000        0.056682         1
        34        39        38        44     9      180.000000        0.029063         2
        34        39        38        44     9        0.000000        0.464816         3
        34        39        38        44     9      180.000000        0.029460         4
        35        34        39        38     9        0.000000       -0.581697         1
        35        34        39        38     9      180.000000       -0.178850         2
        35        34        39        38     9        0.000000       -0.539812         3
        35        34        39        38     9      180.000000        0.228285         4
        35        34        39        45     9        0.000000        0.001137         1
        35        34        39        45     9      180.000000       -0.132140         2
        35        34        39        45     9        0.000000       -0.440824         3
        35        34        39        45     9      180.000000        0.030108         4
        35        34        39        46     9        0.000000        0.001137         1
        35        34        39        46     9      180.000000       -0.132140         2
        35        34        39        46     9        0.000000       -0.440824         3
        35        34        39        46     9      180.000000        0.030108         4
        35        36        37        38     9        0.000000        1.757084         1
        35        36        37        38     9      180.000000       -1.262017         2
        35        36        37        38     9        0.000000        0.610032         3
        35        36        37        38     9      180.000000       -0.013762         4
        35        36        37        40     9        0.000000        0.088848         1
        35        36        37        40     9      180.000000        0.098174         2
        35        36        37        40     9        0.000000        0.957104         3
        35        36        37        40     9      180.000000        0.111039         4
        36        35        34        39     9        0.000000        0.173945         1
        36        35        34        39     9      180.000000       16.682661         2
        36        35        34        39     9        0.000000       -0.531422         3
        36        35        34        39     9      180.000000       -0.483502         4
        36        37        38        39     9        0.000000        2.929372         1
        36        37        38        39     9      180.000000       -2.275396         2
        36        37        38        39     9        0.000000        0.136332         3
        36        37        38        39     9      180.000000        0.386228         4
        36        37        38        43     9        0.000000       -0.123649         1
        36        37        38        43     9      180.000000        0.088231         2
        36        37        38        43     9        0.000000        0.293555         3
        36        37        38        43     9      180.000000        0.009401         4
        36        37        38        44     9        0.000000       -0.123649         1
        36        37        38        44     9      180.000000        0.088231         2
        36        37        38        44     9        0.000000        0.293555         3
        36        37        38        44     9      180.000000        0.009401         4
        36        37        40        47     9        0.000000       -0.036256         1
        36        37        40        47     9      180.000000        0.018735         2
        36        37        40        47     9        0.000000        1.024067         3
        36        37        40        47     9      180.000000        0.001601         4
        36        37        40        48     9        0.000000       -0.036256         1
        36        37        40        48     9      180.000000        0.018735         2
        36        37        40        48     9        0.000000        1.024067         3
        36        37        40        48     9      180.000000        0.001601         4
        36        37        40        49     9        0.000000       -0.036256         1
        36        37        40        49     9      180.000000        0.018735         2
        36        37        40        49     9        0.000000        1.024067         3
        36        37        40        49     9      180.000000        0.001601         4
        37        38        39        45     9        0.000000       -0.054085         1
        37        38        39        45     9      180.000000        0.034526         2
        37        38        39        45     9        0.000000        0.373195         3
        37        38        39        45     9      180.000000        0.083514         4
        37        38        39        46     9        0.000000       -0.054085         1
        37        38        39        46     9      180.000000        0.034526         2
        37        38        39        46     9        0.000000        0.373195         3
        37        38        39        46     9      180.000000        0.083514         4
        38        37        36        41     9        0.000000       -0.029691         1
        38        37        36        41     9      180.000000        0.036400         2
        38        37        36        41     9        0.000000        0.631979         3
        38        37        36        41     9      180.000000        0.071457         4
        38        37        36        42     9        0.000000       -0.029691         1
        38        37        36        42     9      180.000000        0.036400         2
        38        37        36        42     9        0.000000        0.631979         3
        38        37        36        42     9      180.000000        0.071457         4
        38        37        40        47     9        0.000000       -0.014100         1
        38        37        40        47     9      180.000000        0.015343         2
        38        37        40        47     9        0.000000        0.884158         3
        38        37        40        47     9      180.000000        0.019132         4
        38        37        40        48     9        0.000000       -0.014100         1
        38        37        40        48     9      180.000000        0.015343         2
        38        37        40        48     9        0.000000        0.884158         3
        38        37        40        48     9      180.000000        0.019132         4
        38        37        40        49     9        0.000000       -0.014100         1
        38        37        40        49     9      180.000000        0.015343         2
        38        37        40        49     9        0.000000        0.884158         3
        38        37        40        49     9      180.000000        0.019132         4
        39        38        37        40     9        0.000000        1.698500         1
        39        38        37        40     9      180.000000       -0.487751         2
        39        38        37        40     9        0.000000        0.450767         3
        39        38        37        40     9      180.000000        0.246699         4
        40        37        36        41     9        0.000000        0.111988         1
        40        37        36        41     9      180.000000        0.004567         2
        40        37        36        41     9        0.000000        0.981665         3
        40        37        36        41     9      180.000000       -0.069874         4
        40        37        36        42     9        0.000000        0.111988         1
        40        37        36        42     9      180.000000        0.004567         2
        40        37        36        42     9        0.000000        0.981665         3
        40        37        36        42     9      180.000000       -0.069874         4
        40        37        38        43     9        0.000000       -0.115413         1
        40        37        38        43     9      180.000000       -0.101300         2
        40        37        38        43     9        0.000000        0.611434         3
        40        37        38        43     9      180.000000       -0.123227         4
        40        37        38        44     9        0.000000       -0.115413         1
        40        37        38        44     9      180.000000       -0.101300         2
        40        37        38        44     9        0.000000        0.611434         3
        40        37        38        44     9      180.000000       -0.123227         4
        43        38        39        45     9        0.000000       -0.014895         1
        43        38        39        45     9      180.000000       -0.022227         2
        43        38        39        45     9        0.000000        0.401862         3
        43        38        39        45     9      180.000000       -0.001746         4
        43        38        39        46     9        0.000000       -0.014895         1
        43        38        39        46     9      180.000000       -0.022227         2
        43        38        39        46     9        0.000000        0.401862         3
        43        38        39        46     9      180.000000       -0.001746         4
        44        38        39        45     9        0.000000       -0.014895         1
        44        38        39        45     9      180.000000       -0.022227         2
        44        38        39        45     9        0.000000        0.401862         3
        44        38        39        45     9      180.000000       -0.001746         4
        44        38        39        46     9        0.000000       -0.014895         1
        44        38        39        46     9      180.000000       -0.022227         2
        44        38        39        46     9        0.000000        0.401862         3
        44        38        39        46     9      180.000000       -0.001746         4
        50        18        17        55     9        0.000000        0.178565         1
        50        18        17        55     9      180.000000        0.124017         2
        50        18        17        55     9        0.000000        0.213224         3
        50        18        17        55     9      180.000000       -0.042705         4
        50        18        17        56     9        0.000000        0.178565         1
        50        18        17        56     9      180.000000        0.124017         2
        50        18        17        56     9        0.000000        0.213224         3
        50        18        17        56     9      180.000000       -0.042705         4
        50        18        19        58     9        0.000000        0.159078         1
        50        18        19        58     9      180.000000        0.098531         2
        50        18        19        58     9        0.000000        0.249228         3
        50        18        19        58     9      180.000000       -0.047820         4
        50        18        19        59     9        0.000000        0.159078         1
        50        18        19        59     9      180.000000        0.098531         2
        50        18        19        59     9        0.000000        0.249228         3
        50        18        19        59     9      180.000000       -0.047820         4
        50        52        53        62     9        0.000000       -0.008626         1
        50        52        53        62     9      180.000000        0.038862         2
        50        52        53        62     9        0.000000        0.235749         3
        50        52        53        62     9      180.000000        0.020475         4
        50        52        53        63     9        0.000000       -0.008626         1
        50        52        53        63     9      180.000000        0.038862         2
        50        52        53        63     9        0.000000        0.235749         3
        50        52        53        63     9      180.000000        0.020475         4
        50        52        53        64     9        0.000000       -0.008626         1
        50        52        53        64     9      180.000000        0.038862         2
        50        52        53        64     9        0.000000        0.235749         3
        50        52        53        64     9      180.000000        0.020475         4
        50        52        54        65     9        0.000000       -0.008626         1
        50        52        54        65     9      180.000000        0.038862         2
        50        52        54        65     9        0.000000        0.235749         3
        50        52        54        65     9      180.000000        0.020475         4
        50        52        54        66     9        0.000000       -0.008626         1
        50        52        54        66     9      180.000000        0.038862         2
        50        52        54        66     9        0.000000        0.235749         3
        50        52        54        66     9      180.000000        0.020475         4
        50        52        54        67     9        0.000000       -0.008626         1
        50        52        54        67     9      180.000000        0.038862         2
        50        52        54        67     9        0.000000        0.235749         3
        50        52        54        67     9      180.000000        0.020475         4
        51        50        18        57     9        0.000000        1.593583         1
        51        50        18        57     9      180.000000        0.703025         2
        51        50        18        57     9        0.000000        0.717740         3
        51        50        18        57     9      180.000000       -0.500486         4
        51        50        52        53     9        0.000000       -0.375518         1
        51        50        52        53     9      180.000000       13.044421         2
        51        50        52        53     9        0.000000       -1.547115         3
        51        50        52        53     9      180.000000       -0.087257         4
        51        50        52        54     9        0.000000       -0.375518         1
        51        50        52        54     9      180.000000       13.044421         2
        51        50        52        54     9        0.000000       -1.547115         3
        51        50        52        54     9      180.000000       -0.087257         4
        52        50        18        57     9        0.000000       -0.215324         1
        52        50        18        57     9      180.000000        0.004504         2
        52        50        18        57     9        0.000000       -0.151551         3
        52        50        18        57     9      180.000000       -0.047823         4
        53        52        54        65     9        0.000000       -0.024574         1
        53        52        54        65     9      180.000000        0.053683         2
        53        52        54        65     9        0.000000        1.208154         3
        53        52        54        65     9      180.000000        0.010416         4
        53        52        54        66     9        0.000000       -0.024574         1
        53        52        54        66     9      180.000000        0.053683         2
        53        52        54        66     9        0.000000        1.208154         3
        53        52        54        66     9      180.000000        0.010416         4
        53        52        54        67     9        0.000000       -0.024574         1
        53        52        54        67     9      180.000000        0.053683         2
        53        52        54        67     9        0.000000        1.208154         3
        53        52        54        67     9      180.000000        0.010416         4
        54        52        53        62     9        0.000000       -0.024574         1
        54        52        53        62     9      180.000000        0.053683         2
        54        52        53        62     9        0.000000        1.208154         3
        54        52        53        62     9      180.000000        0.010416         4
        54        52        53        63     9        0.000000       -0.024574         1
        54        52        53        63     9      180.000000        0.053683         2
        54        52        53        63     9        0.000000        1.208154         3
        54        52        53        63     9      180.000000        0.010416         4
        54        52        53        64     9        0.000000       -0.024574         1
        54        52        53        64     9      180.000000        0.053683         2
        54        52        53        64     9        0.000000        1.208154         3
        54        52        53        64     9      180.000000        0.010416         4
        55        17        16        68     9        0.000000        0.032620         1
        55        17        16        68     9      180.000000        0.014450         2
        55        17        16        68     9        0.000000        0.397221         3
        55        17        16        68     9      180.000000        0.013351         4
        55        17        18        57     9        0.000000        0.092902         1
        55        17        18        57     9      180.000000        0.093401         2
        55        17        18        57     9        0.000000        0.416253         3
        55        17        18        57     9      180.000000       -0.035407         4
        56        17        16        68     9        0.000000        0.032620         1
        56        17        16        68     9      180.000000        0.014450         2
        56        17        16        68     9        0.000000        0.397221         3
        56        17        16        68     9      180.000000        0.013351         4
        56        17        18        57     9        0.000000        0.092902         1
        56        17        18        57     9      180.000000        0.093401         2
        56        17        18        57     9        0.000000        0.416253         3
        56        17        18        57     9      180.000000       -0.035407         4
        57        18        19        58     9        0.000000        0.089169         1
        57        18        19        58     9      180.000000        0.058938         2
        57        18        19        58     9        0.000000        0.395713         3
        57        18        19        58     9      180.000000       -0.024133         4
        57        18        19        59     9        0.000000        0.089169         1
        57        18        19        59     9      180.000000        0.058938         2
        57        18        19        59     9        0.000000        0.395713         3
        57        18        19        59     9      180.000000       -0.024133         4
        58        19        20        60     9        0.000000        0.013546         1
        58        19        20        60     9      180.000000        0.010717         2
        58        19        20        60     9        0.000000        0.296412         3
        58        19        20        60     9      180.000000        0.043706         4
        58        19        20        61     9        0.000000        0.013546         1
        58        19        20        61     9      180.000000        0.010717         2
        58        19        20        61     9        0.000000        0.296412         3
        58        19        20        61     9      180.000000        0.043706         4
        59        19        20        60     9        0.000000        0.013546         1
        59        19        20        60     9      180.000000        0.010717         2
        59        19        20        60     9        0.000000        0.296412         3
        59        19        20        60     9      180.000000        0.043706         4
        59        19        20        61     9        0.000000        0.013546         1
        59        19        20        61     9      180.000000        0.010717         2
        59        19        20        61     9        0.000000        0.296412         3
        59        19        20        61     9      180.000000        0.043706         4

[ dihedrals ] ; impropers
;       ai        aj        ak        al funct           phase               k        pn
         3         1         4         8     4      180.000000        4.435322         2
         3         4         8         1     4      180.000000        4.435322         2
         3         8         1         4     4      180.000000        4.435322         2
         5         4         6        12     4      180.000000       26.894503         2
         5         6        12         4     4      180.000000       26.894503         2
         5        12         4         6     4      180.000000       26.894503         2
         7         1         6        27     4      180.000000       17.406502         2
         7         6        27         1     4      180.000000       17.406502         2
         7        27         1         6     4      180.000000       17.406502         2
        12         5        13        15     4      180.000000       22.186606         2
        12        13        15         5     4      180.000000       22.186606         2
        12        15         5        13     4      180.000000       22.186606         2
        22        21        23        24     4      180.000000       14.088156         2
        22        23        24        21     4      180.000000       14.088156         2
        22        24        21        23     4      180.000000       14.088156         2
        50        18        51        52     4      180.000000       15.867169         2
        50        51        52        18     4      180.000000       15.867169         2
        50        52        18        51     4      180.000000       15.867169         2

[ pairs ]
;       ai        aj funct
         1         2     1
         1         5     1
         1         9     1
         1        28     1
         2         8     1
         2        29     1
         2        30     1
         3         6     1
         3        10     1
         3        12     1
         3        27     1
         3        29     1
         3        30     1
         4         7     1
         4         9     1
         4        11     1
         4        13     1
         4        15     1
         4        28     1
         5         8     1
         5        14     1
         5        27     1
         5        31     1
         6        11     1
         6        13     1
         6        15     1
         7         8     1
         7        10     1
         7        12     1
         7        30     1
         8        11     1
         9        30     1
        10        28     1
        11        27     1
        11        29     1
        12        16     1
        12        20     1
        12        32     1
        13        17     1
        13        19     1
        13        21     1
        13        60     1
        13        61     1
        13        68     1
        14        15     1
        14        18     1
        14        22     1
        14        33     1
        14        55     1
        14        56     1
        14        58     1
        14        59     1
        15        31     1
        16        19     1
        16        23     1
        16        24     1
        16        31     1
        16        50     1
        16        57     1
        16        60     1
        16        61     1
        17        20     1
        17        22     1
        17        32     1
        17        33     1
        17        51     1
        17        52     1
        17        58     1
        17        59     1
        18        21     1
        18        53     1
        18        54     1
        18        60     1
        18        61     1
        18        68     1
        19        32     1
        19        51     1
        19        52     1
        19        55     1
        19        56     1
        20        21     1
        20        31     1
        20        50     1
        20        57     1
        20        68     1
        21        25     1
        21        26     1
        21        32     1
        21        55     1
        21        56     1
        22        34     1
        22        35     1
        22        68     1
        23        33     1
        23        36     1
        23        39     1
        24        25     1
        24        26     1
        24        33     1
        25        36     1
        25        38     1
        25        45     1
        25        46     1
        26        37     1
        26        39     1
        26        41     1
        26        42     1
        28        29     1
        31        32     1
        32        60     1
        32        61     1
        32        68     1
        33        68     1
        34        37     1
        34        41     1
        34        42     1
        34        43     1
        34        44     1
        35        38     1
        35        40     1
        35        45     1
        35        46     1
        36        39     1
        36        43     1
        36        44     1
        36        47     1
        36        48     1
        36        49     1
        37        45     1
        37        46     1
        38        41     1
        38        42     1
        38        47     1
        38        48     1
        38        49     1
        39        40     1
        40        41     1
        40        42     1
        40        43     1
        40        44     1
        43        45     1
        43        46     1
        44        45     1
        44        46     1
        50        55     1
        50        56     1
        50        58     1
        50        59     1
        50        62     1
        50        63     1
        50        64     1
        50        65     1
        50        66     1
        50        67     1
        51        53     1
        51        54     1
        51        57     1
        52        57     1
        53        65     1
        53        66     1
        53        67     1
        54        62     1
        54        63     1
        54        64     1
        55        57     1
        55        68     1
        56        57     1
        56        68     1
        57        58     1
        57        59     1
        58        60     1
        58        61     1
        59        60     1
        59        61     1
