; ITP file created by ByteFF-ML, 2025-12-06 08:07:23.941808

[ atomtypes ]
;name           bonded.type        at.num        mass        charge   ptype           sigma         epsilon
 c0bf                                   6      0.0000       0.00000       A     3.31526e-01     4.14458e-01
 cl1bf                                 17      0.0000       0.00000       A     3.46719e-01     1.10475e+00
 c2bf                                   6      0.0000       0.00000       A     3.31523e-01     4.13069e-01
 c3bf                                   6      0.0000       0.00000       A     3.31562e-01     4.14506e-01
 c4bf                                   6      0.0000       0.00000       A     3.31444e-01     4.13711e-01
 n5bf                                   7      0.0000       0.00000       A     3.37929e-01     3.88978e-01
 n6bf                                   7      0.0000       0.00000       A     3.38400e-01     3.93083e-01
 c7bf                                   6      0.0000       0.00000       A     3.31560e-01     4.13514e-01
 c8bf                                   6      0.0000       0.00000       A     3.31535e-01     4.12895e-01
 c9bf                                   6      0.0000       0.00000       A     3.31476e-01     4.11492e-01
 c10bf                                  6      0.0000       0.00000       A     3.31464e-01     4.11768e-01
 c11bf                                  6      0.0000       0.00000       A     3.31212e-01     4.12906e-01
 n12bf                                  7      0.0000       0.00000       A     3.26384e-01     4.88726e-01
 c13bf                                  6      0.0000       0.00000       A     3.39882e-01     4.48406e-01
 o14bf                                  8      0.0000       0.00000       A     3.04656e-01     6.10185e-01
 c15bf                                  6      0.0000       0.00000       A     3.39970e-01     4.49282e-01
 c16bf                                  6      0.0000       0.00000       A     3.39695e-01     4.50020e-01
 c17bf                                  6      0.0000       0.00000       A     3.39807e-01     4.51065e-01
 c18bf                                  6      0.0000       0.00000       A     3.39783e-01     4.50599e-01
 c19bf                                  6      0.0000       0.00000       A     3.39773e-01     4.51249e-01
 n20bf                                  7      0.0000       0.00000       A     3.26602e-01     4.88281e-01
 c21bf                                  6      0.0000       0.00000       A     3.31258e-01     4.13621e-01
 c22bf                                  6      0.0000       0.00000       A     3.31371e-01     4.12927e-01
 o23bf                                  8      0.0000       0.00000       A     3.04582e-01     6.10219e-01
 n24bf                                  7      0.0000       0.00000       A     3.38377e-01     3.93517e-01
 s25bf                                 16      0.0000       0.00000       A     3.53468e-01     1.17897e+00
 h26bf                                  1      0.0000       0.00000       A     2.62421e-01     6.64460e-02
 h27bf                                  1      0.0000       0.00000       A     2.62482e-01     6.71482e-02
 h28bf                                  1      0.0000       0.00000       A     2.62534e-01     6.73797e-02
 h29bf                                  1      0.0000       0.00000       A     2.62455e-01     6.76302e-02
 h30bf                                  1      0.0000       0.00000       A     1.10453e-01     4.01555e-02
 h31bf                                  1      0.0000       0.00000       A     2.42179e-01     8.63601e-02
 h32bf                                  1      0.0000       0.00000       A     1.10612e-01     4.02241e-02
 c33bf                                  6      0.0000       0.00000       A     3.31347e-01     4.13267e-01
 c34bf                                  6      0.0000       0.00000       A     3.31421e-01     4.13824e-01
 c35bf                                  6      0.0000       0.00000       A     3.39969e-01     4.50893e-01
 n36bf                                  7      0.0000       0.00000       A     3.36930e-01     3.57427e-01
 c37bf                                  6      0.0000       0.00000       A     3.39827e-01     4.51767e-01
 c38bf                                  6      0.0000       0.00000       A     3.39882e-01     4.51317e-01
 c39bf                                  6      0.0000       0.00000       A     3.39758e-01     4.50040e-01
 h40bf                                  1      0.0000       0.00000       A     2.42170e-01     8.71342e-02
 h41bf                                  1      0.0000       0.00000       A     2.42170e-01     8.71342e-02
 h42bf                                  1      0.0000       0.00000       A     2.42257e-01     8.79530e-02
 h43bf                                  1      0.0000       0.00000       A     2.42257e-01     8.79530e-02
 h44bf                                  1      0.0000       0.00000       A     2.59883e-01     8.84270e-02
 h45bf                                  1      0.0000       0.00000       A     2.59883e-01     8.84270e-02
 h46bf                                  1      0.0000       0.00000       A     2.41989e-01     8.72555e-02
 h47bf                                  1      0.0000       0.00000       A     2.41989e-01     8.72555e-02
 h48bf                                  1      0.0000       0.00000       A     2.41989e-01     8.72555e-02
 c49bf                                  6      0.0000       0.00000       A     3.31656e-01     4.11194e-01
 o50bf                                  8      0.0000       0.00000       A     3.04848e-01     6.12895e-01
 n51bf                                  7      0.0000       0.00000       A     3.18436e-01     6.83644e-01
 c52bf                                  6      0.0000       0.00000       A     3.39787e-01     4.50128e-01
 c53bf                                  6      0.0000       0.00000       A     3.39787e-01     4.50128e-01
 h54bf                                  1      0.0000       0.00000       A     2.59758e-01     8.65469e-02
 h55bf                                  1      0.0000       0.00000       A     2.59758e-01     8.65469e-02
 h56bf                                  1      0.0000       0.00000       A     2.59710e-01     8.69571e-02
 h57bf                                  1      0.0000       0.00000       A     2.59950e-01     8.71566e-02
 h58bf                                  1      0.0000       0.00000       A     2.59950e-01     8.71566e-02
 h59bf                                  1      0.0000       0.00000       A     2.59873e-01     8.66777e-02
 h60bf                                  1      0.0000       0.00000       A     2.59873e-01     8.66777e-02
 h61bf                                  1      0.0000       0.00000       A     2.42033e-01     8.76162e-02
 h62bf                                  1      0.0000       0.00000       A     2.42033e-01     8.76162e-02
 h63bf                                  1      0.0000       0.00000       A     2.42033e-01     8.76162e-02
 h64bf                                  1      0.0000       0.00000       A     2.42033e-01     8.76162e-02
 h65bf                                  1      0.0000       0.00000       A     2.42033e-01     8.76162e-02
 h66bf                                  1      0.0000       0.00000       A     2.42033e-01     8.76162e-02
 h67bf                                  1      0.0000       0.00000       A     2.42061e-01     8.64671e-02

[ moleculetype ]
;name             nrexcl
 5f                    3

[ atoms ]
;       nr            type      resi   res      atom      cgnr      charge          mass ; qtot
         1            c0bf         1   UNL        c0         1     0.21326       12.0110 ; qtot    0.213
         2           cl1bf         1   UNL       cl1         2    -0.19234       35.4530 ; qtot    0.021
         3            c2bf         1   UNL        c2         3    -0.06728       12.0110 ; qtot   -0.046
         4            c3bf         1   UNL        c3         4    -0.03261       12.0110 ; qtot   -0.079
         5            c4bf         1   UNL        c4         5     0.21052       12.0110 ; qtot    0.132
         6            n5bf         1   UNL        n5         6    -0.30078       14.0070 ; qtot   -0.169
         7            n6bf         1   UNL        n6         7    -0.28699       14.0070 ; qtot   -0.456
         8            c7bf         1   UNL        c7         8    -0.07636       12.0110 ; qtot   -0.533
         9            c8bf         1   UNL        c8         9    -0.09160       12.0110 ; qtot   -0.624
        10            c9bf         1   UNL        c9        10     0.12094       12.0110 ; qtot   -0.503
        11           c10bf         1   UNL       c10        11    -0.05309       12.0110 ; qtot   -0.556
        12           c11bf         1   UNL       c11        12     0.51714       12.0110 ; qtot   -0.039
        13           n12bf         1   UNL       n12        13    -0.48117       14.0070 ; qtot   -0.520
        14           c13bf         1   UNL       c13        14     0.09748       12.0110 ; qtot   -0.423
        15           o14bf         1   UNL       o14        15    -0.60053       15.9990 ; qtot   -1.023
        16           c15bf         1   UNL       c15        16     0.09853       12.0110 ; qtot   -0.925
        17           c16bf         1   UNL       c16        17    -0.07593       12.0110 ; qtot   -1.001
        18           c17bf         1   UNL       c17        18    -0.13491       12.0110 ; qtot   -1.136
        19           c18bf         1   UNL       c18        19    -0.06728       12.0110 ; qtot   -1.203
        20           c19bf         1   UNL       c19        20    -0.08744       12.0110 ; qtot   -1.290
        21           n20bf         1   UNL       n20        21    -0.49001       14.0070 ; qtot   -1.780
        22           c21bf         1   UNL       c21        22     0.53549       12.0110 ; qtot   -1.245
        23           c22bf         1   UNL       c22        23     0.38153       12.0110 ; qtot   -0.863
        24           o23bf         1   UNL       o23        24    -0.58023       15.9990 ; qtot   -1.444
        25           n24bf         1   UNL       n24        25    -0.61219       14.0070 ; qtot   -2.056
        26           s25bf         1   UNL       s25        26     0.02030       32.0670 ; qtot   -2.036
        27           h26bf         1   UNL       h26        27     0.15336        1.0080 ; qtot   -1.882
        28           h27bf         1   UNL       h27        28     0.12839        1.0080 ; qtot   -1.754
        29           h28bf         1   UNL       h28        29     0.13603        1.0080 ; qtot   -1.618
        30           h29bf         1   UNL       h29        30     0.15772        1.0080 ; qtot   -1.460
        31           h30bf         1   UNL       h30        31     0.34673        1.0080 ; qtot   -1.113
        32           h31bf         1   UNL       h31        32     0.07740        1.0080 ; qtot   -1.036
        33           h32bf         1   UNL       h32        33     0.34007        1.0080 ; qtot   -0.696
        34           c33bf         1   UNL       c33        34     0.28744       12.0110 ; qtot   -0.408
        35           c34bf         1   UNL       c34        35    -0.23576       12.0110 ; qtot   -0.644
        36           c35bf         1   UNL       c35        36     0.24225       12.0110 ; qtot   -0.402
        37           n36bf         1   UNL       n36        37    -0.71279       14.0070 ; qtot   -1.115
        38           c37bf         1   UNL       c37        38     0.15975       12.0110 ; qtot   -0.955
        39           c38bf         1   UNL       c38        39    -0.11333       12.0110 ; qtot   -1.068
        40           c39bf         1   UNL       c39        40     0.14641       12.0110 ; qtot   -0.922
        41           h40bf         1   UNL       h40        41     0.05577        1.0080 ; qtot   -0.866
        42           h41bf         1   UNL       h41        42     0.05577        1.0080 ; qtot   -0.810
        43           h42bf         1   UNL       h42        43     0.04433        1.0080 ; qtot   -0.766
        44           h43bf         1   UNL       h43        44     0.04433        1.0080 ; qtot   -0.722
        45           h44bf         1   UNL       h44        45     0.06561        1.0080 ; qtot   -0.656
        46           h45bf         1   UNL       h45        46     0.06561        1.0080 ; qtot   -0.590
        47           h46bf         1   UNL       h46        47     0.03413        1.0080 ; qtot   -0.556
        48           h47bf         1   UNL       h47        48     0.03413        1.0080 ; qtot   -0.522
        49           h48bf         1   UNL       h48        49     0.03413        1.0080 ; qtot   -0.488
        50           c49bf         1   UNL       c49        50     0.60518       12.0110 ; qtot    0.117
        51           o50bf         1   UNL       o50        51    -0.60574       15.9990 ; qtot   -0.489
        52           n51bf         1   UNL       n51        52    -0.42066       14.0070 ; qtot   -0.909
        53           c52bf         1   UNL       c52        53     0.08301       12.0110 ; qtot   -0.826
        54           c53bf         1   UNL       c53        54     0.08301       12.0110 ; qtot   -0.743
        55           h54bf         1   UNL       h54        55     0.06130        1.0080 ; qtot   -0.682
        56           h55bf         1   UNL       h55        56     0.06130        1.0080 ; qtot   -0.621
        57           h56bf         1   UNL       h56        57     0.06316        1.0080 ; qtot   -0.558
        58           h57bf         1   UNL       h57        58     0.05027        1.0080 ; qtot   -0.507
        59           h58bf         1   UNL       h58        59     0.05027        1.0080 ; qtot   -0.457
        60           h59bf         1   UNL       h59        60     0.05517        1.0080 ; qtot   -0.402
        61           h60bf         1   UNL       h60        61     0.05517        1.0080 ; qtot   -0.347
        62           h61bf         1   UNL       h61        62     0.04477        1.0080 ; qtot   -0.302
        63           h62bf         1   UNL       h62        63     0.04477        1.0080 ; qtot   -0.257
        64           h63bf         1   UNL       h63        64     0.04477        1.0080 ; qtot   -0.212
        65           h64bf         1   UNL       h64        65     0.04477        1.0080 ; qtot   -0.168
        66           h65bf         1   UNL       h65        66     0.04477        1.0080 ; qtot   -0.123
        67           h66bf         1   UNL       h66        67     0.04477        1.0080 ; qtot   -0.078
        68           h67bf         1   UNL       h67        68     0.07801        1.0080 ; qtot   -0.000

[ bonds ]
;       ai        aj funct               r               k
         1         3     1        0.142747   247550.481689
         1         7     1        0.136909   241172.895068
         1        11     1        0.142032   279943.487744
         2        10     1        0.175278   153077.273486
         3         4     1        0.141084   291106.575439
         3         8     1        0.142081   278249.202686
         4         5     1        0.138150   319736.841650
         4        27     1        0.108516   323399.629248
         5         6     1        0.136110   236740.367920
         5        12     1        0.151230   168031.511060
         6         7     1        0.130511   339391.375732
         8         9     1        0.137802   358372.113184
         8        28     1        0.108618   320377.618799
         9        10     1        0.142034   260755.669873
         9        29     1        0.108448   325872.719531
        10        11     1        0.137444   354398.411279
        11        30     1        0.108400   328480.109473
        12        13     1        0.135549   326131.972266
        12        15     1        0.123597   582932.275879
        13        14     1        0.146134   192101.807178
        13        31     1        0.101512   408726.389746
        14        16     1        0.154771   156432.658130
        14        20     1        0.153894   172874.585547
        14        32     1        0.109299   301876.417187
        16        17     1        0.153890   171755.268506
        16        21     1        0.146250   191046.869189
        16        68     1        0.109290   301765.586133
        17        18     1        0.154579   164893.255688
        17        55     1        0.109326   300596.548340
        17        56     1        0.109326   300596.548340
        18        19     1        0.154661   163666.440186
        18        50     1        0.153191   158389.847729
        18        57     1        0.109414   302100.760693
        19        20     1        0.153693   181138.049390
        19        58     1        0.109447   297470.142188
        19        59     1        0.109447   297470.142188
        20        60     1        0.109408   298814.185791
        20        61     1        0.109408   298814.185791
        21        22     1        0.136095   315450.182471
        21        33     1        0.101409   412617.504639
        22        23     1        0.149761   181928.244165
        22        24     1        0.123205   595504.348047
        23        25     1        0.130744   394780.497705
        23        26     1        0.175753   114860.619019
        25        34     1        0.137483   250388.573877
        26        35     1        0.173418   163411.796899
        34        35     1        0.137232   358668.241504
        34        39     1        0.150284   209899.921094
        35        36     1        0.150545   205958.217187
        36        37     1        0.146468   191918.016602
        36        41     1        0.110015   279945.249805
        36        42     1        0.110015   279945.249805
        37        38     1        0.146781   189560.941406
        37        40     1        0.146077   206296.839258
        38        39     1        0.153813   178870.826514
        38        43     1        0.109814   285833.034668
        38        44     1        0.109814   285833.034668
        39        45     1        0.109539   296322.146973
        39        46     1        0.109539   296322.146973
        40        47     1        0.109765   288786.094922
        40        48     1        0.109765   288786.094922
        40        49     1        0.109765   288786.094922
        50        51     1        0.123512   586720.450684
        50        52     1        0.137606   276714.984229
        52        53     1        0.145947   208517.482446
        52        54     1        0.145947   208517.482446
        53        62     1        0.109324   300806.693213
        53        63     1        0.109324   300806.693213
        53        64     1        0.109324   300806.693213
        54        65     1        0.109324   300806.693213
        54        66     1        0.109324   300806.693213
        54        67     1        0.109324   300806.693213

[ angles ]
;       ai        aj        ak funct           theta             cth
         1         3         4     1      116.201622      859.142289
         1         3         8     1      118.979172      674.002268
         1         7         6     1      119.526024      629.352293
         1        11        10     1      119.009727      466.291529
         1        11        30     1      118.740578      440.469170
         2        10         9     1      118.305298      405.751980
         2        10        11     1      120.075974      334.924616
         3         1         7     1      122.399246      758.233104
         3         1        11     1      119.915451      722.964568
         3         4         5     1      117.815109      710.433189
         3         4        27     1      122.107445      418.752476
         3         8         9     1      120.301407      566.899632
         3         8        28     1      119.553360      445.555492
         4         3         8     1      124.642784      394.411621
         4         5         6     1      123.301537      630.334578
         4         5        12     1      119.848534      475.834651
         5         4        27     1      119.865074      405.103306
         5         6         7     1      120.715721      787.580925
         5        12        13     1      114.061691      493.913296
         5        12        15     1      120.796242      652.767779
         6         5        12     1      116.730423      609.404427
         7         1        11     1      117.323013      457.624298
         8         9        10     1      119.684044      621.359752
         8         9        29     1      121.077316      423.371118
         9         8        28     1      119.979759      440.677138
         9        10        11     1      121.622620      647.677595
        10         9        29     1      119.449974      442.027540
        10        11        30     1      122.310059      413.176703
        12        13        14     1      123.303894      524.522842
        12        13        31     1      116.163147      435.856657
        13        12        15     1      124.898582      605.272522
        13        14        16     1      111.213158      545.561142
        13        14        20     1      111.651810      630.839446
        13        14        32     1      106.291077      528.446619
        14        13        31     1      119.053627      373.654707
        14        16        17     1      110.945633      562.777432
        14        16        21     1      111.214767      547.481597
        14        16        68     1      107.753700      470.405302
        14        20        19     1      111.593033      623.894438
        14        20        60     1      108.978394      496.170713
        14        20        61     1      108.978394      496.170713
        16        14        20     1      110.866531      553.866130
        16        14        32     1      107.717125      472.279374
        16        17        18     1      111.939430      596.757301
        16        17        55     1      109.082336      493.142969
        16        17        56     1      109.082336      493.142969
        16        21        22     1      123.281532      523.533821
        16        21        33     1      117.985329      388.342599
        17        16        21     1      111.416893      612.846063
        17        16        68     1      108.673912      471.627763
        17        18        19     1      110.560959      569.917990
        17        18        50     1      110.802452      642.130488
        17        18        57     1      107.640671      495.211858
        18        17        55     1      109.789185      465.155383
        18        17        56     1      109.789185      465.155383
        18        19        20     1      111.603378      627.166571
        18        19        58     1      109.459435      468.787845
        18        19        59     1      109.459435      468.787845
        18        50        51     1      120.367775      453.866799
        18        50        52     1      118.348633      449.080890
        19        18        50     1      111.026161      653.509377
        19        18        57     1      107.798851      493.236244
        19        20        60     1      109.998474      502.411408
        19        20        61     1      109.998474      502.411408
        20        14        32     1      108.850830      471.125959
        20        19        58     1      109.708351      513.116564
        20        19        59     1      109.708351      513.116564
        21        16        68     1      106.369919      527.599138
        21        22        23     1      114.245560      430.111414
        21        22        24     1      124.890869      615.174089
        22        21        33     1      117.270615      420.964947
        22        23        25     1      124.340652      359.309363
        22        23        26     1      120.844772      468.365589
        23        22        24     1      120.964073      537.680773
        23        25        34     1      111.406593      328.705787
        23        26        35     1       88.551132      167.360000
        25        23        26     1      114.891418      167.360000
        25        34        35     1      115.272217      312.892220
        25        34        39     1      122.848999      461.667684
        26        35        34     1      110.263878      167.360000
        26        35        36     1      125.788002      401.332369
        34        35        36     1      123.996292      562.620314
        34        39        38     1      109.429955      644.587349
        34        39        45     1      109.759384      484.571854
        34        39        46     1      109.759384      484.571854
        35        34        39     1      121.676254      406.530862
        35        36        37     1      110.200546      563.933816
        35        36        41     1      110.205734      462.983196
        35        36        42     1      110.205734      462.983196
        36        37        38     1      111.045578      613.756014
        36        37        40     1      111.203835      630.245325
        37        36        41     1      109.551048      459.134690
        37        36        42     1      109.551048      459.134690
        37        38        39     1      112.270889      625.644432
        37        38        43     1      109.041969      476.770682
        37        38        44     1      109.041969      476.770682
        37        40        47     1      110.858498      481.423224
        37        40        48     1      110.858498      481.423224
        37        40        49     1      110.858498      481.423224
        38        37        40     1      112.192528      649.121399
        38        39        45     1      110.261795      502.853519
        38        39        46     1      110.261795      502.853519
        39        38        43     1      109.631447      493.664916
        39        38        44     1      109.631447      493.664916
        41        36        42     1      106.585083      354.341693
        43        38        44     1      107.114723      348.812845
        45        39        46     1      106.901878      363.316136
        47        40        48     1      108.062943      347.504005
        47        40        49     1      108.062943      347.504005
        48        40        49     1      108.062943      347.504005
        50        18        57     1      108.212730      515.178845
        50        52        53     1      122.129654      505.902714
        50        52        54     1      122.129654      505.902714
        51        50        52     1      121.081711      636.267423
        52        53        62     1      110.326584      477.859265
        52        53        63     1      110.326584      477.859265
        52        53        64     1      110.326584      477.859329
        52        54        65     1      110.326584      477.859265
        52        54        66     1      110.326584      477.859265
        52        54        67     1      110.326584      477.859265
        53        52        54     1      114.947632      573.331217
        55        17        56     1      107.084274      355.159487
        58        19        59     1      106.645180      359.821255
        60        20        61     1      106.839844      356.387024
        62        53        63     1      108.724693      349.793087
        62        53        64     1      108.724693      349.793087
        63        53        64     1      108.724693      349.793087
        65        54        66     1      108.724693      349.793087
        65        54        67     1      108.724709      349.793087
        66        54        67     1      108.724693      349.793087

[ dihedrals ] ; propers for gromacs 4.5 or higher, use funct 9
;       ai        aj        ak        al funct           phase               k        pn
         1         3         4         5     9        0.000000       -0.458197         1
         1         3         4         5     9      180.000000       16.021312         2
         1         3         4         5     9        0.000000       -1.386229         3
         1         3         4         5     9      180.000000       -0.365362         4
         1         3         4        27     9        0.000000        0.002409         1
         1         3         4        27     9      180.000000       12.654967         2
         1         3         4        27     9        0.000000       -0.334671         3
         1         3         4        27     9      180.000000       -0.001693         4
         1         3         8         9     9        0.000000       -0.280482         1
         1         3         8         9     9      180.000000       15.934919         2
         1         3         8         9     9        0.000000       -1.096161         3
         1         3         8         9     9      180.000000       -0.274796         4
         1         3         8        28     9        0.000000       -0.004657         1
         1         3         8        28     9      180.000000       12.166009         2
         1         3         8        28     9        0.000000       -0.292935         3
         1         3         8        28     9      180.000000       -0.029066         4
         1         7         6         5     9        0.000000       -1.011060         1
         1         7         6         5     9      180.000000       32.264075         2
         1         7         6         5     9        0.000000       -0.256963         3
         1         7         6         5     9      180.000000       -1.282253         4
         1        11        10         2     9        0.000000        0.213537         1
         1        11        10         2     9      180.000000       22.046883         2
         1        11        10         2     9        0.000000        0.389142         3
         1        11        10         2     9      180.000000       -0.971284         4
         1        11        10         9     9        0.000000       -0.045409         1
         1        11        10         9     9      180.000000       19.183323         2
         1        11        10         9     9        0.000000       -1.126600         3
         1        11        10         9     9      180.000000       -0.489156         4
         2        10         9         8     9        0.000000        0.283183         1
         2        10         9         8     9      180.000000       16.467503         2
         2        10         9         8     9        0.000000        0.181795         3
         2        10         9         8     9      180.000000       -0.415939         4
         2        10         9        29     9        0.000000        0.150300         1
         2        10         9        29     9      180.000000       12.278086         2
         2        10         9        29     9        0.000000       -0.150844         3
         2        10         9        29     9      180.000000        0.216035         4
         2        10        11        30     9        0.000000        0.160564         1
         2        10        11        30     9      180.000000       14.464508         2
         2        10        11        30     9        0.000000       -0.064480         3
         2        10        11        30     9      180.000000        0.333499         4
         3         1         7         6     9        0.000000        1.544908         1
         3         1         7         6     9      180.000000       16.506568         2
         3         1         7         6     9        0.000000        0.755008         3
         3         1         7         6     9      180.000000       -0.606806         4
         3         1        11        10     9        0.000000       -0.166891         1
         3         1        11        10     9      180.000000       14.938222         2
         3         1        11        10     9        0.000000       -0.914497         3
         3         1        11        10     9      180.000000       -0.182031         4
         3         1        11        30     9        0.000000       -0.026862         1
         3         1        11        30     9      180.000000       11.746542         2
         3         1        11        30     9        0.000000       -0.237062         3
         3         1        11        30     9      180.000000        0.077465         4
         3         4         5         6     9        0.000000       -0.196591         1
         3         4         5         6     9      180.000000       16.190858         2
         3         4         5         6     9        0.000000       -0.739276         3
         3         4         5         6     9      180.000000       -0.420674         4
         3         4         5        12     9        0.000000        0.371933         1
         3         4         5        12     9      180.000000       14.991319         2
         3         4         5        12     9        0.000000        0.196052         3
         3         4         5        12     9      180.000000       -0.630620         4
         3         8         9        10     9        0.000000       -0.086003         1
         3         8         9        10     9      180.000000       20.839817         2
         3         8         9        10     9        0.000000       -1.665383         3
         3         8         9        10     9      180.000000       -0.515186         4
         3         8         9        29     9        0.000000       -0.026127         1
         3         8         9        29     9      180.000000       16.841065         2
         3         8         9        29     9        0.000000       -0.526888         3
         3         8         9        29     9      180.000000       -0.048053         4
         4         3         1         7     9        0.000000       -0.043871         1
         4         3         1         7     9      180.000000        9.648422         2
         4         3         1         7     9        0.000000       -0.399800         3
         4         3         1         7     9      180.000000       -0.101682         4
         4         3         1        11     9        0.000000        0.255681         1
         4         3         1        11     9      180.000000       11.102798         2
         4         3         1        11     9        0.000000       -0.914310         3
         4         3         1        11     9      180.000000       -0.150227         4
         4         3         8         9     9        0.000000       -0.313175         1
         4         3         8         9     9      180.000000       12.807112         2
         4         3         8         9     9        0.000000       -0.748908         3
         4         3         8         9     9      180.000000       -0.099249         4
         4         3         8        28     9        0.000000       -0.190574         1
         4         3         8        28     9      180.000000       11.063344         2
         4         3         8        28     9        0.000000       -0.422337         3
         4         3         8        28     9      180.000000       -0.015946         4
         4         5         6         7     9        0.000000       -0.006227         1
         4         5         6         7     9      180.000000       18.054473         2
         4         5         6         7     9        0.000000        0.562294         3
         4         5         6         7     9      180.000000       -0.289392         4
         4         5        12        13     9        0.000000       -0.503904         1
         4         5        12        13     9      180.000000        3.111777         2
         4         5        12        13     9        0.000000        0.771244         3
         4         5        12        13     9      180.000000       -0.428095         4
         4         5        12        15     9        0.000000        1.399270         1
         4         5        12        15     9      180.000000        3.291174         2
         4         5        12        15     9        0.000000       -0.902847         3
         4         5        12        15     9      180.000000        0.297820         4
         5         4         3         8     9        0.000000       -0.283970         1
         5         4         3         8     9      180.000000       12.777412         2
         5         4         3         8     9        0.000000       -0.929206         3
         5         4         3         8     9      180.000000       -0.057585         4
         5        12        13        14     9        0.000000        0.615831         1
         5        12        13        14     9      180.000000       11.478247         2
         5        12        13        14     9        0.000000        0.544168         3
         5        12        13        14     9      180.000000       -0.421429         4
         5        12        13        31     9        0.000000       -2.102265         1
         5        12        13        31     9      180.000000        9.364266         2
         5        12        13        31     9        0.000000        0.182763         3
         5        12        13        31     9      180.000000        0.079948         4
         6         5         4        27     9        0.000000       -0.107721         1
         6         5         4        27     9      180.000000       12.668347         2
         6         5         4        27     9        0.000000       -0.131965         3
         6         5         4        27     9      180.000000       -0.119616         4
         6         5        12        13     9        0.000000        3.586448         1
         6         5        12        13     9      180.000000        2.348291         2
         6         5        12        13     9        0.000000        0.025057         3
         6         5        12        13     9      180.000000       -0.026827         4
         6         5        12        15     9        0.000000       -3.362406         1
         6         5        12        15     9      180.000000        3.624759         2
         6         5        12        15     9        0.000000        0.755855         3
         6         5        12        15     9      180.000000        0.148813         4
         6         7         1        11     9        0.000000        0.667778         1
         6         7         1        11     9      180.000000       16.197412         2
         6         7         1        11     9        0.000000        0.854752         3
         6         7         1        11     9      180.000000       -0.511297         4
         7         1         3         8     9        0.000000       -0.085694         1
         7         1         3         8     9      180.000000       10.270076         2
         7         1         3         8     9        0.000000       -0.317076         3
         7         1         3         8     9      180.000000       -0.111908         4
         7         1        11        10     9        0.000000        0.009530         1
         7         1        11        10     9      180.000000       12.582847         2
         7         1        11        10     9        0.000000        0.045311         3
         7         1        11        10     9      180.000000       -0.221321         4
         7         1        11        30     9        0.000000       -0.025868         1
         7         1        11        30     9      180.000000       10.601851         2
         7         1        11        30     9        0.000000       -0.299174         3
         7         1        11        30     9      180.000000        0.138372         4
         7         6         5        12     9        0.000000        0.659546         1
         7         6         5        12     9      180.000000       18.635749         2
         7         6         5        12     9        0.000000        1.663234         3
         7         6         5        12     9      180.000000       -0.993185         4
         8         3         1        11     9        0.000000        0.244149         1
         8         3         1        11     9      180.000000       11.450366         2
         8         3         1        11     9        0.000000       -0.964372         3
         8         3         1        11     9      180.000000       -0.151531         4
         8         3         4        27     9        0.000000        0.236633         1
         8         3         4        27     9      180.000000       10.788826         2
         8         3         4        27     9        0.000000       -0.311903         3
         8         3         4        27     9      180.000000        0.084120         4
         8         9        10        11     9        0.000000       -0.045740         1
         8         9        10        11     9      180.000000       15.142482         2
         8         9        10        11     9        0.000000       -1.105604         3
         8         9        10        11     9      180.000000       -0.235107         4
         9        10        11        30     9        0.000000        0.005651         1
         9        10        11        30     9      180.000000       14.452046         2
         9        10        11        30     9        0.000000       -0.337578         3
         9        10        11        30     9      180.000000        0.080699         4
        10         9         8        28     9        0.000000        0.015748         1
        10         9         8        28     9      180.000000       16.139081         2
        10         9         8        28     9        0.000000       -0.480421         3
        10         9         8        28     9      180.000000        0.121366         4
        11        10         9        29     9        0.000000       -0.081841         1
        11        10         9        29     9      180.000000       12.380484         2
        11        10         9        29     9        0.000000       -0.565910         3
        11        10         9        29     9      180.000000        0.074926         4
        12         5         4        27     9        0.000000        0.235888         1
        12         5         4        27     9      180.000000       11.909369         2
        12         5         4        27     9        0.000000       -0.203891         3
        12         5         4        27     9      180.000000       -0.038498         4
        12        13        14        16     9        0.000000        1.450930         1
        12        13        14        16     9      180.000000       -0.496740         2
        12        13        14        16     9        0.000000        0.252630         3
        12        13        14        16     9      180.000000        0.261730         4
        12        13        14        20     9        0.000000       -0.063584         1
        12        13        14        20     9      180.000000       -0.209377         2
        12        13        14        20     9        0.000000        0.241980         3
        12        13        14        20     9      180.000000        0.093852         4
        12        13        14        32     9        0.000000        0.013277         1
        12        13        14        32     9      180.000000        0.062419         2
        12        13        14        32     9        0.000000        0.099186         3
        12        13        14        32     9      180.000000        0.150092         4
        13        14        16        17     9        0.000000       -0.774088         1
        13        14        16        17     9      180.000000        0.150389         2
        13        14        16        17     9        0.000000        0.082528         3
        13        14        16        17     9      180.000000        0.261085         4
        13        14        16        21     9        0.000000        2.326729         1
        13        14        16        21     9      180.000000        0.048980         2
        13        14        16        21     9        0.000000       -0.494394         3
        13        14        16        21     9      180.000000        0.159348         4
        13        14        16        68     9        0.000000       -0.336736         1
        13        14        16        68     9      180.000000        0.058011         2
        13        14        16        68     9        0.000000        0.360699         3
        13        14        16        68     9      180.000000       -0.036494         4
        13        14        20        19     9        0.000000       -0.538663         1
        13        14        20        19     9      180.000000        0.724127         2
        13        14        20        19     9        0.000000        0.176304         3
        13        14        20        19     9      180.000000        0.122664         4
        13        14        20        60     9        0.000000        0.093074         1
        13        14        20        60     9      180.000000        0.102829         2
        13        14        20        60     9        0.000000        0.375565         3
        13        14        20        60     9      180.000000       -0.094618         4
        13        14        20        61     9        0.000000        0.093074         1
        13        14        20        61     9      180.000000        0.102829         2
        13        14        20        61     9        0.000000        0.375565         3
        13        14        20        61     9      180.000000       -0.094618         4
        14        13        12        15     9        0.000000       -0.093202         1
        14        13        12        15     9      180.000000       11.537762         2
        14        13        12        15     9        0.000000        0.371683         3
        14        13        12        15     9      180.000000       -1.329800         4
        14        16        17        18     9        0.000000        3.481329         1
        14        16        17        18     9      180.000000       -1.774228         2
        14        16        17        18     9        0.000000       -0.106475         3
        14        16        17        18     9      180.000000        0.001314         4
        14        16        17        55     9        0.000000       -0.108875         1
        14        16        17        55     9      180.000000        0.059970         2
        14        16        17        55     9        0.000000        0.166375         3
        14        16        17        55     9      180.000000        0.051087         4
        14        16        17        56     9        0.000000       -0.108875         1
        14        16        17        56     9      180.000000        0.059970         2
        14        16        17        56     9        0.000000        0.166375         3
        14        16        17        56     9      180.000000        0.051087         4
        14        16        21        22     9        0.000000        1.021618         1
        14        16        21        22     9      180.000000       -0.442705         2
        14        16        21        22     9        0.000000        0.338836         3
        14        16        21        22     9      180.000000        0.179329         4
        14        16        21        33     9        0.000000        0.563232         1
        14        16        21        33     9      180.000000       -1.108165         2
        14        16        21        33     9        0.000000        0.539615         3
        14        16        21        33     9      180.000000        0.016633         4
        14        20        19        18     9        0.000000        1.313110         1
        14        20        19        18     9      180.000000       -1.620582         2
        14        20        19        18     9        0.000000        0.188376         3
        14        20        19        18     9      180.000000        0.078233         4
        14        20        19        58     9        0.000000       -0.097913         1
        14        20        19        58     9      180.000000        0.068759         2
        14        20        19        58     9        0.000000        0.235386         3
        14        20        19        58     9      180.000000        0.022805         4
        14        20        19        59     9        0.000000       -0.097913         1
        14        20        19        59     9      180.000000        0.068759         2
        14        20        19        59     9        0.000000        0.235386         3
        14        20        19        59     9      180.000000        0.022805         4
        15        12        13        31     9        0.000000        0.272466         1
        15        12        13        31     9      180.000000       11.437291         2
        15        12        13        31     9        0.000000       -0.107813         3
        15        12        13        31     9      180.000000        0.185481         4
        16        14        13        31     9        0.000000        0.250955         1
        16        14        13        31     9      180.000000       -1.202429         2
        16        14        13        31     9        0.000000        0.495137         3
        16        14        13        31     9      180.000000        0.001859         4
        16        14        20        19     9        0.000000        2.721663         1
        16        14        20        19     9      180.000000       -1.667669         2
        16        14        20        19     9        0.000000        0.039106         3
        16        14        20        19     9      180.000000        0.056051         4
        16        14        20        60     9        0.000000       -0.100389         1
        16        14        20        60     9      180.000000        0.063667         2
        16        14        20        60     9        0.000000        0.181974         3
        16        14        20        60     9      180.000000        0.054231         4
        16        14        20        61     9        0.000000       -0.100389         1
        16        14        20        61     9      180.000000        0.063667         2
        16        14        20        61     9        0.000000        0.181974         3
        16        14        20        61     9      180.000000        0.054231         4
        16        17        18        19     9        0.000000        2.167701         1
        16        17        18        19     9      180.000000       -2.095071         2
        16        17        18        19     9        0.000000        0.100990         3
        16        17        18        19     9      180.000000       -0.067359         4
        16        17        18        50     9        0.000000       -0.969890         1
        16        17        18        50     9      180.000000       -0.492010         2
        16        17        18        50     9        0.000000        0.043330         3
        16        17        18        50     9      180.000000        0.044241         4
        16        17        18        57     9        0.000000       -0.731592         1
        16        17        18        57     9      180.000000        0.097424         2
        16        17        18        57     9        0.000000        0.165659         3
        16        17        18        57     9      180.000000        0.052140         4
        16        21        22        23     9        0.000000        1.551351         1
        16        21        22        23     9      180.000000       10.806241         2
        16        21        22        23     9        0.000000        0.659059         3
        16        21        22        23     9      180.000000       -0.282031         4
        16        21        22        24     9        0.000000       -0.687196         1
        16        21        22        24     9      180.000000       10.163927         2
        16        21        22        24     9        0.000000        0.483358         3
        16        21        22        24     9      180.000000       -1.334168         4
        17        16        14        20     9        0.000000        3.511478         1
        17        16        14        20     9      180.000000       -1.686692         2
        17        16        14        20     9        0.000000        0.073162         3
        17        16        14        20     9      180.000000       -0.001619         4
        17        16        14        32     9        0.000000       -0.372060         1
        17        16        14        32     9      180.000000        0.082737         2
        17        16        14        32     9        0.000000        0.302181         3
        17        16        14        32     9      180.000000        0.053142         4
        17        16        21        22     9        0.000000       -0.005175         1
        17        16        21        22     9      180.000000       -0.401672         2
        17        16        21        22     9        0.000000        0.370215         3
        17        16        21        22     9      180.000000        0.053218         4
        17        16        21        33     9        0.000000       -0.136586         1
        17        16        21        33     9      180.000000       -0.353037         2
        17        16        21        33     9        0.000000        0.351756         3
        17        16        21        33     9      180.000000       -0.038850         4
        17        18        19        20     9        0.000000        0.883010         1
        17        18        19        20     9      180.000000       -1.399872         2
        17        18        19        20     9        0.000000        0.314248         3
        17        18        19        20     9      180.000000       -0.050797         4
        17        18        19        58     9        0.000000       -0.056826         1
        17        18        19        58     9      180.000000        0.050149         2
        17        18        19        58     9        0.000000        0.270717         3
        17        18        19        58     9      180.000000        0.019384         4
        17        18        19        59     9        0.000000       -0.056826         1
        17        18        19        59     9      180.000000        0.050149         2
        17        18        19        59     9        0.000000        0.270717         3
        17        18        19        59     9      180.000000        0.019384         4
        17        18        50        51     9        0.000000       -0.455386         1
        17        18        50        51     9      180.000000        0.737900         2
        17        18        50        51     9        0.000000        0.287526         3
        17        18        50        51     9      180.000000        0.250951         4
        17        18        50        52     9        0.000000        0.270994         1
        17        18        50        52     9      180.000000        1.080078         2
        17        18        50        52     9        0.000000       -0.027563         3
        17        18        50        52     9      180.000000        0.001527         4
        18        17        16        21     9        0.000000       -0.378319         1
        18        17        16        21     9      180.000000        0.218820         2
        18        17        16        21     9        0.000000        0.056326         3
        18        17        16        21     9      180.000000        0.226509         4
        18        17        16        68     9        0.000000       -0.669048         1
        18        17        16        68     9      180.000000        0.139249         2
        18        17        16        68     9        0.000000        0.154171         3
        18        17        16        68     9      180.000000        0.076395         4
        18        19        20        60     9        0.000000       -0.080258         1
        18        19        20        60     9      180.000000        0.083233         2
        18        19        20        60     9        0.000000        0.213417         3
        18        19        20        60     9      180.000000        0.012387         4
        18        19        20        61     9        0.000000       -0.080258         1
        18        19        20        61     9      180.000000        0.083233         2
        18        19        20        61     9        0.000000        0.213417         3
        18        19        20        61     9      180.000000        0.012387         4
        18        50        52        53     9        0.000000        7.685850         1
        18        50        52        53     9      180.000000       10.413246         2
        18        50        52        53     9        0.000000        0.340038         3
        18        50        52        53     9      180.000000       -0.442447         4
        18        50        52        54     9        0.000000        7.685850         1
        18        50        52        54     9      180.000000       10.413246         2
        18        50        52        54     9        0.000000        0.340038         3
        18        50        52        54     9      180.000000       -0.442447         4
        19        18        17        55     9        0.000000       -0.052172         1
        19        18        17        55     9      180.000000        0.058083         2
        19        18        17        55     9        0.000000        0.229959         3
        19        18        17        55     9      180.000000        0.057798         4
        19        18        17        56     9        0.000000       -0.052172         1
        19        18        17        56     9      180.000000        0.058083         2
        19        18        17        56     9        0.000000        0.229959         3
        19        18        17        56     9      180.000000        0.057798         4
        19        18        50        51     9        0.000000       -0.698289         1
        19        18        50        51     9      180.000000        0.744054         2
        19        18        50        51     9        0.000000        0.336890         3
        19        18        50        51     9      180.000000        0.225666         4
        19        18        50        52     9        0.000000        0.291846         1
        19        18        50        52     9      180.000000        1.098654         2
        19        18        50        52     9        0.000000        0.042828         3
        19        18        50        52     9      180.000000       -0.012816         4
        19        20        14        32     9        0.000000       -0.429901         1
        19        20        14        32     9      180.000000        0.166353         2
        19        20        14        32     9        0.000000        0.246487         3
        19        20        14        32     9      180.000000        0.022031         4
        20        14        13        31     9        0.000000        0.015029         1
        20        14        13        31     9      180.000000       -0.086258         2
        20        14        13        31     9        0.000000        0.303226         3
        20        14        13        31     9      180.000000       -0.082524         4
        20        14        16        21     9        0.000000       -0.422691         1
        20        14        16        21     9      180.000000        0.246869         2
        20        14        16        21     9        0.000000        0.137211         3
        20        14        16        21     9      180.000000        0.209697         4
        20        14        16        68     9        0.000000       -0.374629         1
        20        14        16        68     9      180.000000        0.114271         2
        20        14        16        68     9        0.000000        0.315420         3
        20        14        16        68     9      180.000000        0.046303         4
        20        19        18        50     9        0.000000       -1.205837         1
        20        19        18        50     9      180.000000       -0.024594         2
        20        19        18        50     9        0.000000        0.127041         3
        20        19        18        50     9      180.000000        0.096010         4
        20        19        18        57     9        0.000000       -0.470892         1
        20        19        18        57     9      180.000000        0.118851         2
        20        19        18        57     9        0.000000        0.267874         3
        20        19        18        57     9      180.000000        0.031479         4
        21        16        14        32     9        0.000000       -0.394324         1
        21        16        14        32     9      180.000000        0.029196         2
        21        16        14        32     9        0.000000        0.348483         3
        21        16        14        32     9      180.000000       -0.012571         4
        21        16        17        55     9        0.000000        0.122902         1
        21        16        17        55     9      180.000000        0.128407         2
        21        16        17        55     9        0.000000        0.386720         3
        21        16        17        55     9      180.000000       -0.072984         4
        21        16        17        56     9        0.000000        0.122902         1
        21        16        17        56     9      180.000000        0.128407         2
        21        16        17        56     9        0.000000        0.386720         3
        21        16        17        56     9      180.000000       -0.072984         4
        21        22        23        25     9        0.000000        2.923749         1
        21        22        23        25     9      180.000000        2.022095         2
        21        22        23        25     9        0.000000        0.151149         3
        21        22        23        25     9      180.000000       -0.373995         4
        21        22        23        26     9        0.000000       -0.304414         1
        21        22        23        26     9      180.000000        3.200684         2
        21        22        23        26     9        0.000000        0.463910         3
        21        22        23        26     9      180.000000       -0.514292         4
        22        21        16        68     9        0.000000        0.020172         1
        22        21        16        68     9      180.000000        0.144925         2
        22        21        16        68     9        0.000000        0.214736         3
        22        21        16        68     9      180.000000        0.179789         4
        22        23        25        34     9        0.000000        0.509539         1
        22        23        25        34     9      180.000000       28.889665         2
        22        23        25        34     9        0.000000        0.564950         3
        22        23        25        34     9      180.000000       -0.961131         4
        22        23        26        35     9        0.000000       -1.127037         1
        22        23        26        35     9      180.000000       15.581777         2
        22        23        26        35     9        0.000000       -0.036420         3
        22        23        26        35     9      180.000000       -0.602861         4
        23        22        21        33     9        0.000000       -0.415752         1
        23        22        21        33     9      180.000000        9.010384         2
        23        22        21        33     9        0.000000        0.175298         3
        23        22        21        33     9      180.000000       -0.065606         4
        23        25        34        35     9        0.000000       -0.228535         1
        23        25        34        35     9      180.000000       27.756785         2
        23        25        34        35     9        0.000000       -2.863850         3
        23        25        34        35     9      180.000000       -0.158646         4
        23        25        34        39     9        0.000000        0.109642         1
        23        25        34        39     9      180.000000       22.524852         2
        23        25        34        39     9        0.000000        0.728535         3
        23        25        34        39     9      180.000000       -0.420500         4
        23        26        35        34     9        0.000000        0.019507         1
        23        26        35        34     9      180.000000       29.322726         2
        23        26        35        34     9        0.000000       -6.425576         3
        23        26        35        34     9      180.000000       -0.474428         4
        23        26        35        36     9        0.000000        0.448650         1
        23        26        35        36     9      180.000000       11.835073         2
        23        26        35        36     9        0.000000        0.424426         3
        23        26        35        36     9      180.000000       -0.134990         4
        24        22        21        33     9        0.000000       -0.005332         1
        24        22        21        33     9      180.000000       10.730372         2
        24        22        21        33     9        0.000000       -0.060300         3
        24        22        21        33     9      180.000000       -0.147584         4
        24        22        23        25     9        0.000000       -1.392140         1
        24        22        23        25     9      180.000000        3.582888         2
        24        22        23        25     9        0.000000        0.461599         3
        24        22        23        25     9      180.000000        0.214010         4
        24        22        23        26     9        0.000000        0.210149         1
        24        22        23        26     9      180.000000        4.370762         2
        24        22        23        26     9        0.000000       -0.343613         3
        24        22        23        26     9      180.000000        0.218765         4
        25        23        26        35     9        0.000000       -0.590193         1
        25        23        26        35     9      180.000000       31.322398         2
        25        23        26        35     9        0.000000       -5.851399         3
        25        23        26        35     9      180.000000       -0.585767         4
        25        34        35        26     9        0.000000       -0.800174         1
        25        34        35        26     9      180.000000       28.383673         2
        25        34        35        26     9        0.000000       -5.049933         3
        25        34        35        26     9      180.000000       -1.030530         4
        25        34        35        36     9        0.000000        0.006237         1
        25        34        35        36     9      180.000000       19.786124         2
        25        34        35        36     9        0.000000       -0.767005         3
        25        34        35        36     9      180.000000       -1.000863         4
        25        34        39        38     9        0.000000       -1.761287         1
        25        34        39        38     9      180.000000       -0.518566         2
        25        34        39        38     9        0.000000        0.250165         3
        25        34        39        38     9      180.000000        0.137553         4
        25        34        39        45     9        0.000000        0.061059         1
        25        34        39        45     9      180.000000        0.031081         2
        25        34        39        45     9        0.000000        0.254497         3
        25        34        39        45     9      180.000000       -0.033807         4
        25        34        39        46     9        0.000000        0.061059         1
        25        34        39        46     9      180.000000        0.031081         2
        25        34        39        46     9        0.000000        0.254497         3
        25        34        39        46     9      180.000000       -0.033807         4
        26        23        25        34     9        0.000000       -0.414856         1
        26        23        25        34     9      180.000000       36.017356         2
        26        23        25        34     9        0.000000       -4.165866         3
        26        23        25        34     9      180.000000        0.025250         4
        26        35        34        39     9        0.000000        0.102614         1
        26        35        34        39     9      180.000000       18.114968         2
        26        35        34        39     9        0.000000       -0.791874         3
        26        35        34        39     9      180.000000       -0.971119         4
        26        35        36        37     9        0.000000       -3.606837         1
        26        35        36        37     9      180.000000       -0.362514         2
        26        35        36        37     9        0.000000        0.387711         3
        26        35        36        37     9      180.000000        0.164191         4
        26        35        36        41     9        0.000000        0.050382         1
        26        35        36        41     9      180.000000        0.088073         2
        26        35        36        41     9        0.000000        0.411892         3
        26        35        36        41     9      180.000000       -0.037587         4
        26        35        36        42     9        0.000000        0.050382         1
        26        35        36        42     9      180.000000        0.088073         2
        26        35        36        42     9        0.000000        0.411892         3
        26        35        36        42     9      180.000000       -0.037587         4
        28         8         9        29     9        0.000000       -0.091521         1
        28         8         9        29     9      180.000000       12.796496         2
        28         8         9        29     9        0.000000       -0.673559         3
        28         8         9        29     9      180.000000        0.329970         4
        31        13        14        32     9        0.000000       -0.710966         1
        31        13        14        32     9      180.000000        0.128113         2
        31        13        14        32     9        0.000000        0.510812         3
        31        13        14        32     9      180.000000        0.184930         4
        32        14        16        68     9        0.000000        0.159481         1
        32        14        16        68     9      180.000000       -0.169694         2
        32        14        16        68     9        0.000000        0.419207         3
        32        14        16        68     9      180.000000       -0.050949         4
        32        14        20        60     9        0.000000        0.033058         1
        32        14        20        60     9      180.000000        0.013144         2
        32        14        20        60     9        0.000000        0.371389         3
        32        14        20        60     9      180.000000        0.011796         4
        32        14        20        61     9        0.000000        0.033058         1
        32        14        20        61     9      180.000000        0.013144         2
        32        14        20        61     9        0.000000        0.371389         3
        32        14        20        61     9      180.000000        0.011796         4
        33        21        16        68     9        0.000000       -0.794086         1
        33        21        16        68     9      180.000000        0.147692         2
        33        21        16        68     9        0.000000        0.562941         3
        33        21        16        68     9      180.000000        0.176200         4
        34        35        36        37     9        0.000000       -3.311658         1
        34        35        36        37     9      180.000000        0.893056         2
        34        35        36        37     9        0.000000       -0.312861         3
        34        35        36        37     9      180.000000        0.089561         4
        34        35        36        41     9        0.000000       -0.010515         1
        34        35        36        41     9      180.000000       -0.166834         2
        34        35        36        41     9        0.000000       -0.357655         3
        34        35        36        41     9      180.000000       -0.002483         4
        34        35        36        42     9        0.000000       -0.010515         1
        34        35        36        42     9      180.000000       -0.166834         2
        34        35        36        42     9        0.000000       -0.357655         3
        34        35        36        42     9      180.000000       -0.002483         4
        34        39        38        37     9        0.000000       -1.384129         1
        34        39        38        37     9      180.000000       -0.653292         2
        34        39        38        37     9        0.000000        0.502380         3
        34        39        38        37     9      180.000000       -0.119672         4
        34        39        38        43     9        0.000000        0.056682         1
        34        39        38        43     9      180.000000        0.029063         2
        34        39        38        43     9        0.000000        0.464816         3
        34        39        38        43     9      180.000000        0.029460         4
        34        39        38        44     9        0.000000        0.056682         1
        34        39        38        44     9      180.000000        0.029063         2
        34        39        38        44     9        0.000000        0.464816         3
        34        39        38        44     9      180.000000        0.029460         4
        35        34        39        38     9        0.000000       -0.581697         1
        35        34        39        38     9      180.000000       -0.178850         2
        35        34        39        38     9        0.000000       -0.539812         3
        35        34        39        38     9      180.000000        0.228285         4
        35        34        39        45     9        0.000000        0.001137         1
        35        34        39        45     9      180.000000       -0.132140         2
        35        34        39        45     9        0.000000       -0.440824         3
        35        34        39        45     9      180.000000        0.030108         4
        35        34        39        46     9        0.000000        0.001137         1
        35        34        39        46     9      180.000000       -0.132140         2
        35        34        39        46     9        0.000000       -0.440824         3
        35        34        39        46     9      180.000000        0.030108         4
        35        36        37        38     9        0.000000        1.757084         1
        35        36        37        38     9      180.000000       -1.262017         2
        35        36        37        38     9        0.000000        0.610032         3
        35        36        37        38     9      180.000000       -0.013762         4
        35        36        37        40     9        0.000000        0.088848         1
        35        36        37        40     9      180.000000        0.098174         2
        35        36        37        40     9        0.000000        0.957104         3
        35        36        37        40     9      180.000000        0.111039         4
        36        35        34        39     9        0.000000        0.173945         1
        36        35        34        39     9      180.000000       16.682661         2
        36        35        34        39     9        0.000000       -0.531422         3
        36        35        34        39     9      180.000000       -0.483502         4
        36        37        38        39     9        0.000000        2.929372         1
        36        37        38        39     9      180.000000       -2.275396         2
        36        37        38        39     9        0.000000        0.136332         3
        36        37        38        39     9      180.000000        0.386228         4
        36        37        38        43     9        0.000000       -0.123649         1
        36        37        38        43     9      180.000000        0.088231         2
        36        37        38        43     9        0.000000        0.293555         3
        36        37        38        43     9      180.000000        0.009401         4
        36        37        38        44     9        0.000000       -0.123649         1
        36        37        38        44     9      180.000000        0.088231         2
        36        37        38        44     9        0.000000        0.293555         3
        36        37        38        44     9      180.000000        0.009401         4
        36        37        40        47     9        0.000000       -0.036256         1
        36        37        40        47     9      180.000000        0.018735         2
        36        37        40        47     9        0.000000        1.024067         3
        36        37        40        47     9      180.000000        0.001601         4
        36        37        40        48     9        0.000000       -0.036256         1
        36        37        40        48     9      180.000000        0.018735         2
        36        37        40        48     9        0.000000        1.024067         3
        36        37        40        48     9      180.000000        0.001601         4
        36        37        40        49     9        0.000000       -0.036256         1
        36        37        40        49     9      180.000000        0.018735         2
        36        37        40        49     9        0.000000        1.024067         3
        36        37        40        49     9      180.000000        0.001601         4
        37        38        39        45     9        0.000000       -0.054085         1
        37        38        39        45     9      180.000000        0.034526         2
        37        38        39        45     9        0.000000        0.373195         3
        37        38        39        45     9      180.000000        0.083514         4
        37        38        39        46     9        0.000000       -0.054085         1
        37        38        39        46     9      180.000000        0.034526         2
        37        38        39        46     9        0.000000        0.373195         3
        37        38        39        46     9      180.000000        0.083514         4
        38        37        36        41     9        0.000000       -0.029691         1
        38        37        36        41     9      180.000000        0.036400         2
        38        37        36        41     9        0.000000        0.631979         3
        38        37        36        41     9      180.000000        0.071457         4
        38        37        36        42     9        0.000000       -0.029691         1
        38        37        36        42     9      180.000000        0.036400         2
        38        37        36        42     9        0.000000        0.631979         3
        38        37        36        42     9      180.000000        0.071457         4
        38        37        40        47     9        0.000000       -0.014100         1
        38        37        40        47     9      180.000000        0.015343         2
        38        37        40        47     9        0.000000        0.884158         3
        38        37        40        47     9      180.000000        0.019132         4
        38        37        40        48     9        0.000000       -0.014100         1
        38        37        40        48     9      180.000000        0.015343         2
        38        37        40        48     9        0.000000        0.884158         3
        38        37        40        48     9      180.000000        0.019132         4
        38        37        40        49     9        0.000000       -0.014100         1
        38        37        40        49     9      180.000000        0.015343         2
        38        37        40        49     9        0.000000        0.884158         3
        38        37        40        49     9      180.000000        0.019132         4
        39        38        37        40     9        0.000000        1.698500         1
        39        38        37        40     9      180.000000       -0.487751         2
        39        38        37        40     9        0.000000        0.450767         3
        39        38        37        40     9      180.000000        0.246699         4
        40        37        36        41     9        0.000000        0.111988         1
        40        37        36        41     9      180.000000        0.004567         2
        40        37        36        41     9        0.000000        0.981665         3
        40        37        36        41     9      180.000000       -0.069874         4
        40        37        36        42     9        0.000000        0.111988         1
        40        37        36        42     9      180.000000        0.004567         2
        40        37        36        42     9        0.000000        0.981665         3
        40        37        36        42     9      180.000000       -0.069874         4
        40        37        38        43     9        0.000000       -0.115413         1
        40        37        38        43     9      180.000000       -0.101300         2
        40        37        38        43     9        0.000000        0.611434         3
        40        37        38        43     9      180.000000       -0.123227         4
        40        37        38        44     9        0.000000       -0.115413         1
        40        37        38        44     9      180.000000       -0.101300         2
        40        37        38        44     9        0.000000        0.611434         3
        40        37        38        44     9      180.000000       -0.123227         4
        43        38        39        45     9        0.000000       -0.014895         1
        43        38        39        45     9      180.000000       -0.022227         2
        43        38        39        45     9        0.000000        0.401862         3
        43        38        39        45     9      180.000000       -0.001746         4
        43        38        39        46     9        0.000000       -0.014895         1
        43        38        39        46     9      180.000000       -0.022227         2
        43        38        39        46     9        0.000000        0.401862         3
        43        38        39        46     9      180.000000       -0.001746         4
        44        38        39        45     9        0.000000       -0.014895         1
        44        38        39        45     9      180.000000       -0.022227         2
        44        38        39        45     9        0.000000        0.401862         3
        44        38        39        45     9      180.000000       -0.001746         4
        44        38        39        46     9        0.000000       -0.014895         1
        44        38        39        46     9      180.000000       -0.022227         2
        44        38        39        46     9        0.000000        0.401862         3
        44        38        39        46     9      180.000000       -0.001746         4
        50        18        17        55     9        0.000000        0.178565         1
        50        18        17        55     9      180.000000        0.124017         2
        50        18        17        55     9        0.000000        0.213224         3
        50        18        17        55     9      180.000000       -0.042705         4
        50        18        17        56     9        0.000000        0.178565         1
        50        18        17        56     9      180.000000        0.124017         2
        50        18        17        56     9        0.000000        0.213224         3
        50        18        17        56     9      180.000000       -0.042705         4
        50        18        19        58     9        0.000000        0.159078         1
        50        18        19        58     9      180.000000        0.098531         2
        50        18        19        58     9        0.000000        0.249228         3
        50        18        19        58     9      180.000000       -0.047820         4
        50        18        19        59     9        0.000000        0.159078         1
        50        18        19        59     9      180.000000        0.098531         2
        50        18        19        59     9        0.000000        0.249228         3
        50        18        19        59     9      180.000000       -0.047820         4
        50        52        53        62     9        0.000000       -0.008626         1
        50        52        53        62     9      180.000000        0.038862         2
        50        52        53        62     9        0.000000        0.235749         3
        50        52        53        62     9      180.000000        0.020475         4
        50        52        53        63     9        0.000000       -0.008626         1
        50        52        53        63     9      180.000000        0.038862         2
        50        52        53        63     9        0.000000        0.235749         3
        50        52        53        63     9      180.000000        0.020475         4
        50        52        53        64     9        0.000000       -0.008626         1
        50        52        53        64     9      180.000000        0.038862         2
        50        52        53        64     9        0.000000        0.235749         3
        50        52        53        64     9      180.000000        0.020475         4
        50        52        54        65     9        0.000000       -0.008626         1
        50        52        54        65     9      180.000000        0.038862         2
        50        52        54        65     9        0.000000        0.235749         3
        50        52        54        65     9      180.000000        0.020475         4
        50        52        54        66     9        0.000000       -0.008626         1
        50        52        54        66     9      180.000000        0.038862         2
        50        52        54        66     9        0.000000        0.235749         3
        50        52        54        66     9      180.000000        0.020475         4
        50        52        54        67     9        0.000000       -0.008626         1
        50        52        54        67     9      180.000000        0.038862         2
        50        52        54        67     9        0.000000        0.235749         3
        50        52        54        67     9      180.000000        0.020475         4
        51        50        18        57     9        0.000000        1.593583         1
        51        50        18        57     9      180.000000        0.703025         2
        51        50        18        57     9        0.000000        0.717740         3
        51        50        18        57     9      180.000000       -0.500486         4
        51        50        52        53     9        0.000000       -0.375518         1
        51        50        52        53     9      180.000000       13.044421         2
        51        50        52        53     9        0.000000       -1.547115         3
        51        50        52        53     9      180.000000       -0.087257         4
        51        50        52        54     9        0.000000       -0.375518         1
        51        50        52        54     9      180.000000       13.044421         2
        51        50        52        54     9        0.000000       -1.547115         3
        51        50        52        54     9      180.000000       -0.087257         4
        52        50        18        57     9        0.000000       -0.215324         1
        52        50        18        57     9      180.000000        0.004504         2
        52        50        18        57     9        0.000000       -0.151551         3
        52        50        18        57     9      180.000000       -0.047823         4
        53        52        54        65     9        0.000000       -0.024574         1
        53        52        54        65     9      180.000000        0.053683         2
        53        52        54        65     9        0.000000        1.208154         3
        53        52        54        65     9      180.000000        0.010416         4
        53        52        54        66     9        0.000000       -0.024574         1
        53        52        54        66     9      180.000000        0.053683         2
        53        52        54        66     9        0.000000        1.208154         3
        53        52        54        66     9      180.000000        0.010416         4
        53        52        54        67     9        0.000000       -0.024574         1
        53        52        54        67     9      180.000000        0.053683         2
        53        52        54        67     9        0.000000        1.208154         3
        53        52        54        67     9      180.000000        0.010416         4
        54        52        53        62     9        0.000000       -0.024574         1
        54        52        53        62     9      180.000000        0.053683         2
        54        52        53        62     9        0.000000        1.208154         3
        54        52        53        62     9      180.000000        0.010416         4
        54        52        53        63     9        0.000000       -0.024574         1
        54        52        53        63     9      180.000000        0.053683         2
        54        52        53        63     9        0.000000        1.208154         3
        54        52        53        63     9      180.000000        0.010416         4
        54        52        53        64     9        0.000000       -0.024574         1
        54        52        53        64     9      180.000000        0.053683         2
        54        52        53        64     9        0.000000        1.208154         3
        54        52        53        64     9      180.000000        0.010416         4
        55        17        16        68     9        0.000000        0.032620         1
        55        17        16        68     9      180.000000        0.014450         2
        55        17        16        68     9        0.000000        0.397221         3
        55        17        16        68     9      180.000000        0.013351         4
        55        17        18        57     9        0.000000        0.092902         1
        55        17        18        57     9      180.000000        0.093401         2
        55        17        18        57     9        0.000000        0.416253         3
        55        17        18        57     9      180.000000       -0.035407         4
        56        17        16        68     9        0.000000        0.032620         1
        56        17        16        68     9      180.000000        0.014450         2
        56        17        16        68     9        0.000000        0.397221         3
        56        17        16        68     9      180.000000        0.013351         4
        56        17        18        57     9        0.000000        0.092902         1
        56        17        18        57     9      180.000000        0.093401         2
        56        17        18        57     9        0.000000        0.416253         3
        56        17        18        57     9      180.000000       -0.035407         4
        57        18        19        58     9        0.000000        0.089169         1
        57        18        19        58     9      180.000000        0.058938         2
        57        18        19        58     9        0.000000        0.395713         3
        57        18        19        58     9      180.000000       -0.024133         4
        57        18        19        59     9        0.000000        0.089169         1
        57        18        19        59     9      180.000000        0.058938         2
        57        18        19        59     9        0.000000        0.395713         3
        57        18        19        59     9      180.000000       -0.024133         4
        58        19        20        60     9        0.000000        0.013546         1
        58        19        20        60     9      180.000000        0.010717         2
        58        19        20        60     9        0.000000        0.296412         3
        58        19        20        60     9      180.000000        0.043706         4
        58        19        20        61     9        0.000000        0.013546         1
        58        19        20        61     9      180.000000        0.010717         2
        58        19        20        61     9        0.000000        0.296412         3
        58        19        20        61     9      180.000000        0.043706         4
        59        19        20        60     9        0.000000        0.013546         1
        59        19        20        60     9      180.000000        0.010717         2
        59        19        20        60     9        0.000000        0.296412         3
        59        19        20        60     9      180.000000        0.043706         4
        59        19        20        61     9        0.000000        0.013546         1
        59        19        20        61     9      180.000000        0.010717         2
        59        19        20        61     9        0.000000        0.296412         3
        59        19        20        61     9      180.000000        0.043706         4

[ dihedrals ] ; impropers
;       ai        aj        ak        al funct           phase               k        pn
         1         3         7        11     4      180.000000        2.303258         2
         1         7        11         3     4      180.000000        2.303258         2
         1        11         3         7     4      180.000000        2.303258         2
         4         3         5        27     4      180.000000        0.576531         2
         4         5        27         3     4      180.000000        0.576531         2
         4        27         3         5     4      180.000000        0.576531         2
        11         1        10        30     4      180.000000        0.132383         2
        11        10        30         1     4      180.000000        0.132383         2
        11        30         1        10     4      180.000000        0.132383         2
        12         5        13        15     4      180.000000       24.405049         2
        12        13        15         5     4      180.000000       24.405049         2
        12        15         5        13     4      180.000000       24.405049         2
        22        21        23        24     4      180.000000       14.088156         2
        22        23        24        21     4      180.000000       14.088156         2
        22        24        21        23     4      180.000000       14.088156         2
        50        18        51        52     4      180.000000       15.867169         2
        50        51        52        18     4      180.000000       15.867169         2
        50        52        18        51     4      180.000000       15.867169         2

[ pairs ]
;       ai        aj funct
         1         2     1
         1         5     1
         1         9     1
         1        27     1
         1        28     1
         2         8     1
         2        29     1
         2        30     1
         3         6     1
         3        10     1
         3        12     1
         3        29     1
         3        30     1
         4         7     1
         4         9     1
         4        11     1
         4        13     1
         4        15     1
         4        28     1
         5         8     1
         5        14     1
         5        31     1
         6        11     1
         6        13     1
         6        15     1
         6        27     1
         7         8     1
         7        10     1
         7        12     1
         7        30     1
         8        11     1
         8        27     1
         9        30     1
        10        28     1
        11        29     1
        12        16     1
        12        20     1
        12        27     1
        12        32     1
        13        17     1
        13        19     1
        13        21     1
        13        60     1
        13        61     1
        13        68     1
        14        15     1
        14        18     1
        14        22     1
        14        33     1
        14        55     1
        14        56     1
        14        58     1
        14        59     1
        15        31     1
        16        19     1
        16        23     1
        16        24     1
        16        31     1
        16        50     1
        16        57     1
        16        60     1
        16        61     1
        17        20     1
        17        22     1
        17        32     1
        17        33     1
        17        51     1
        17        52     1
        17        58     1
        17        59     1
        18        21     1
        18        53     1
        18        54     1
        18        60     1
        18        61     1
        18        68     1
        19        32     1
        19        51     1
        19        52     1
        19        55     1
        19        56     1
        20        21     1
        20        31     1
        20        50     1
        20        57     1
        20        68     1
        21        25     1
        21        26     1
        21        32     1
        21        55     1
        21        56     1
        22        34     1
        22        35     1
        22        68     1
        23        33     1
        23        36     1
        23        39     1
        24        25     1
        24        26     1
        24        33     1
        25        36     1
        25        38     1
        25        45     1
        25        46     1
        26        37     1
        26        39     1
        26        41     1
        26        42     1
        28        29     1
        31        32     1
        32        60     1
        32        61     1
        32        68     1
        33        68     1
        34        37     1
        34        41     1
        34        42     1
        34        43     1
        34        44     1
        35        38     1
        35        40     1
        35        45     1
        35        46     1
        36        39     1
        36        43     1
        36        44     1
        36        47     1
        36        48     1
        36        49     1
        37        45     1
        37        46     1
        38        41     1
        38        42     1
        38        47     1
        38        48     1
        38        49     1
        39        40     1
        40        41     1
        40        42     1
        40        43     1
        40        44     1
        43        45     1
        43        46     1
        44        45     1
        44        46     1
        50        55     1
        50        56     1
        50        58     1
        50        59     1
        50        62     1
        50        63     1
        50        64     1
        50        65     1
        50        66     1
        50        67     1
        51        53     1
        51        54     1
        51        57     1
        52        57     1
        53        65     1
        53        66     1
        53        67     1
        54        62     1
        54        63     1
        54        64     1
        55        57     1
        55        68     1
        56        57     1
        56        68     1
        57        58     1
        57        59     1
        58        60     1
        58        61     1
        59        60     1
        59        61     1
