; ITP file created by ByteFF-ML, 2025-12-06 08:04:02.141747

[ atomtypes ]
;name           bonded.type        at.num        mass        charge   ptype           sigma         epsilon
 c0bf                                   6      0.0000       0.00000       A     3.31467e-01     4.11076e-01
 cl1bf                                 17      0.0000       0.00000       A     3.46707e-01     1.10492e+00
 c2bf                                   6      0.0000       0.00000       A     3.31548e-01     4.13819e-01
 n3bf                                   7      0.0000       0.00000       A     3.20901e-01     8.44887e-01
 c4bf                                   6      0.0000       0.00000       A     3.31623e-01     4.15976e-01
 c5bf                                   6      0.0000       0.00000       A     3.31279e-01     4.14924e-01
 c6bf                                   6      0.0000       0.00000       A     3.31497e-01     4.14129e-01
 c7bf                                   6      0.0000       0.00000       A     3.31480e-01     4.13540e-01
 c8bf                                   6      0.0000       0.00000       A     3.31522e-01     4.12667e-01
 c9bf                                   6      0.0000       0.00000       A     3.31553e-01     4.12882e-01
 c10bf                                  6      0.0000       0.00000       A     3.31382e-01     4.12388e-01
 c11bf                                  6      0.0000       0.00000       A     3.31324e-01     4.11495e-01
 n12bf                                  7      0.0000       0.00000       A     3.26882e-01     4.86793e-01
 c13bf                                  6      0.0000       0.00000       A     3.39779e-01     4.47849e-01
 o14bf                                  8      0.0000       0.00000       A     3.04563e-01     6.12195e-01
 c15bf                                  6      0.0000       0.00000       A     3.39970e-01     4.49282e-01
 c16bf                                  6      0.0000       0.00000       A     3.39695e-01     4.50020e-01
 c17bf                                  6      0.0000       0.00000       A     3.39807e-01     4.51065e-01
 c18bf                                  6      0.0000       0.00000       A     3.39783e-01     4.50599e-01
 c19bf                                  6      0.0000       0.00000       A     3.39773e-01     4.51249e-01
 n20bf                                  7      0.0000       0.00000       A     3.26602e-01     4.88281e-01
 c21bf                                  6      0.0000       0.00000       A     3.31258e-01     4.13621e-01
 c22bf                                  6      0.0000       0.00000       A     3.31371e-01     4.12927e-01
 o23bf                                  8      0.0000       0.00000       A     3.04582e-01     6.10219e-01
 n24bf                                  7      0.0000       0.00000       A     3.38377e-01     3.93517e-01
 s25bf                                 16      0.0000       0.00000       A     3.53468e-01     1.17897e+00
 o26bf                                  8      0.0000       0.00000       A     3.04622e-01     6.12437e-01
 h27bf                                  1      0.0000       0.00000       A     2.62454e-01     6.67029e-02
 h28bf                                  1      0.0000       0.00000       A     2.62515e-01     6.73813e-02
 h29bf                                  1      0.0000       0.00000       A     2.62585e-01     6.75744e-02
 h30bf                                  1      0.0000       0.00000       A     1.10460e-01     4.05481e-02
 h31bf                                  1      0.0000       0.00000       A     2.42179e-01     8.63601e-02
 h32bf                                  1      0.0000       0.00000       A     1.10612e-01     4.02241e-02
 c33bf                                  6      0.0000       0.00000       A     3.31347e-01     4.13267e-01
 c34bf                                  6      0.0000       0.00000       A     3.31421e-01     4.13824e-01
 c35bf                                  6      0.0000       0.00000       A     3.39969e-01     4.50893e-01
 n36bf                                  7      0.0000       0.00000       A     3.36930e-01     3.57427e-01
 c37bf                                  6      0.0000       0.00000       A     3.39827e-01     4.51767e-01
 c38bf                                  6      0.0000       0.00000       A     3.39882e-01     4.51317e-01
 c39bf                                  6      0.0000       0.00000       A     3.39758e-01     4.50040e-01
 h40bf                                  1      0.0000       0.00000       A     2.42170e-01     8.71342e-02
 h41bf                                  1      0.0000       0.00000       A     2.42170e-01     8.71342e-02
 h42bf                                  1      0.0000       0.00000       A     2.42257e-01     8.79530e-02
 h43bf                                  1      0.0000       0.00000       A     2.42257e-01     8.79530e-02
 h44bf                                  1      0.0000       0.00000       A     2.59883e-01     8.84270e-02
 h45bf                                  1      0.0000       0.00000       A     2.59883e-01     8.84270e-02
 h46bf                                  1      0.0000       0.00000       A     2.41989e-01     8.72555e-02
 h47bf                                  1      0.0000       0.00000       A     2.41989e-01     8.72555e-02
 h48bf                                  1      0.0000       0.00000       A     2.41989e-01     8.72555e-02
 c49bf                                  6      0.0000       0.00000       A     3.31656e-01     4.11194e-01
 o50bf                                  8      0.0000       0.00000       A     3.04848e-01     6.12895e-01
 n51bf                                  7      0.0000       0.00000       A     3.18436e-01     6.83644e-01
 c52bf                                  6      0.0000       0.00000       A     3.39787e-01     4.50128e-01
 c53bf                                  6      0.0000       0.00000       A     3.39787e-01     4.50128e-01
 h54bf                                  1      0.0000       0.00000       A     2.59758e-01     8.65469e-02
 h55bf                                  1      0.0000       0.00000       A     2.59758e-01     8.65469e-02
 h56bf                                  1      0.0000       0.00000       A     2.59710e-01     8.69571e-02
 h57bf                                  1      0.0000       0.00000       A     2.59950e-01     8.71566e-02
 h58bf                                  1      0.0000       0.00000       A     2.59950e-01     8.71566e-02
 h59bf                                  1      0.0000       0.00000       A     2.59873e-01     8.66777e-02
 h60bf                                  1      0.0000       0.00000       A     2.59873e-01     8.66777e-02
 h61bf                                  1      0.0000       0.00000       A     2.42033e-01     8.76162e-02
 h62bf                                  1      0.0000       0.00000       A     2.42033e-01     8.76162e-02
 h63bf                                  1      0.0000       0.00000       A     2.42033e-01     8.76162e-02
 h64bf                                  1      0.0000       0.00000       A     2.42033e-01     8.76162e-02
 h65bf                                  1      0.0000       0.00000       A     2.42033e-01     8.76162e-02
 h66bf                                  1      0.0000       0.00000       A     2.42033e-01     8.76162e-02
 h67bf                                  1      0.0000       0.00000       A     2.42061e-01     8.64671e-02
 h68bf                                  1      0.0000       0.00000       A     1.10385e-01     4.03981e-02
 h69bf                                  1      0.0000       0.00000       A     2.62368e-01     6.77515e-02

[ moleculetype ]
;name             nrexcl
 5h                    3

[ atoms ]
;       nr            type      resi   res      atom      cgnr      charge          mass ; qtot
         1            c0bf         1   UNL        c0         1    -0.21203       12.0110 ; qtot   -0.212
         2           cl1bf         1   UNL       cl1         2    -0.20189       35.4530 ; qtot   -0.414
         3            c2bf         1   UNL        c2         3     0.32858       12.0110 ; qtot   -0.085
         4            n3bf         1   UNL        n3         4    -0.79646       14.0070 ; qtot   -0.882
         5            c4bf         1   UNL        c4         5     0.10100       12.0110 ; qtot   -0.781
         6            c5bf         1   UNL        c5         6    -0.33257       12.0110 ; qtot   -1.113
         7            c6bf         1   UNL        c6         7     0.59359       12.0110 ; qtot   -0.520
         8            c7bf         1   UNL        c7         8    -0.16916       12.0110 ; qtot   -0.689
         9            c8bf         1   UNL        c8         9    -0.04189       12.0110 ; qtot   -0.731
        10            c9bf         1   UNL        c9        10     0.07776       12.0110 ; qtot   -0.653
        11           c10bf         1   UNL       c10        11    -0.01358       12.0110 ; qtot   -0.667
        12           c11bf         1   UNL       c11        12     0.60404       12.0110 ; qtot   -0.063
        13           n12bf         1   UNL       n12        13    -0.48898       14.0070 ; qtot   -0.552
        14           c13bf         1   UNL       c13        14     0.09439       12.0110 ; qtot   -0.457
        15           o14bf         1   UNL       o14        15    -0.58587       15.9990 ; qtot   -1.043
        16           c15bf         1   UNL       c15        16     0.09844       12.0110 ; qtot   -0.945
        17           c16bf         1   UNL       c16        17    -0.07593       12.0110 ; qtot   -1.021
        18           c17bf         1   UNL       c17        18    -0.13491       12.0110 ; qtot   -1.155
        19           c18bf         1   UNL       c18        19    -0.06728       12.0110 ; qtot   -1.223
        20           c19bf         1   UNL       c19        20    -0.08770       12.0110 ; qtot   -1.310
        21           n20bf         1   UNL       n20        21    -0.49001       14.0070 ; qtot   -1.800
        22           c21bf         1   UNL       c21        22     0.53549       12.0110 ; qtot   -1.265
        23           c22bf         1   UNL       c22        23     0.38153       12.0110 ; qtot   -0.883
        24           o23bf         1   UNL       o23        24    -0.58023       15.9990 ; qtot   -1.464
        25           n24bf         1   UNL       n24        25    -0.61219       14.0070 ; qtot   -2.076
        26           s25bf         1   UNL       s25        26     0.02030       32.0670 ; qtot   -2.056
        27           o26bf         1   UNL       o26        27    -0.54097       15.9990 ; qtot   -2.597
        28           h27bf         1   UNL       h27        28     0.12383        1.0080 ; qtot   -2.473
        29           h28bf         1   UNL       h28        29     0.13758        1.0080 ; qtot   -2.335
        30           h29bf         1   UNL       h29        30     0.15781        1.0080 ; qtot   -2.177
        31           h30bf         1   UNL       h30        31     0.32748        1.0080 ; qtot   -1.850
        32           h31bf         1   UNL       h31        32     0.07750        1.0080 ; qtot   -1.772
        33           h32bf         1   UNL       h32        33     0.34007        1.0080 ; qtot   -1.432
        34           c33bf         1   UNL       c33        34     0.28744       12.0110 ; qtot   -1.145
        35           c34bf         1   UNL       c34        35    -0.23576       12.0110 ; qtot   -1.381
        36           c35bf         1   UNL       c35        36     0.24225       12.0110 ; qtot   -1.138
        37           n36bf         1   UNL       n36        37    -0.71279       14.0070 ; qtot   -1.851
        38           c37bf         1   UNL       c37        38     0.15975       12.0110 ; qtot   -1.691
        39           c38bf         1   UNL       c38        39    -0.11333       12.0110 ; qtot   -1.805
        40           c39bf         1   UNL       c39        40     0.14641       12.0110 ; qtot   -1.658
        41           h40bf         1   UNL       h40        41     0.05577        1.0080 ; qtot   -1.603
        42           h41bf         1   UNL       h41        42     0.05577        1.0080 ; qtot   -1.547
        43           h42bf         1   UNL       h42        43     0.04433        1.0080 ; qtot   -1.502
        44           h43bf         1   UNL       h43        44     0.04433        1.0080 ; qtot   -1.458
        45           h44bf         1   UNL       h44        45     0.06561        1.0080 ; qtot   -1.392
        46           h45bf         1   UNL       h45        46     0.06561        1.0080 ; qtot   -1.327
        47           h46bf         1   UNL       h46        47     0.03413        1.0080 ; qtot   -1.293
        48           h47bf         1   UNL       h47        48     0.03413        1.0080 ; qtot   -1.259
        49           h48bf         1   UNL       h48        49     0.03413        1.0080 ; qtot   -1.224
        50           c49bf         1   UNL       c49        50     0.60518       12.0110 ; qtot   -0.619
        51           o50bf         1   UNL       o50        51    -0.60574       15.9990 ; qtot   -1.225
        52           n51bf         1   UNL       n51        52    -0.42066       14.0070 ; qtot   -1.646
        53           c52bf         1   UNL       c52        53     0.08301       12.0110 ; qtot   -1.563
        54           c53bf         1   UNL       c53        54     0.08301       12.0110 ; qtot   -1.480
        55           h54bf         1   UNL       h54        55     0.06130        1.0080 ; qtot   -1.418
        56           h55bf         1   UNL       h55        56     0.06130        1.0080 ; qtot   -1.357
        57           h56bf         1   UNL       h56        57     0.06316        1.0080 ; qtot   -1.294
        58           h57bf         1   UNL       h57        58     0.05027        1.0080 ; qtot   -1.244
        59           h58bf         1   UNL       h58        59     0.05027        1.0080 ; qtot   -1.193
        60           h59bf         1   UNL       h59        60     0.05517        1.0080 ; qtot   -1.138
        61           h60bf         1   UNL       h60        61     0.05517        1.0080 ; qtot   -1.083
        62           h61bf         1   UNL       h61        62     0.04477        1.0080 ; qtot   -1.038
        63           h62bf         1   UNL       h62        63     0.04477        1.0080 ; qtot   -0.994
        64           h63bf         1   UNL       h63        64     0.04477        1.0080 ; qtot   -0.949
        65           h64bf         1   UNL       h64        65     0.04477        1.0080 ; qtot   -0.904
        66           h65bf         1   UNL       h65        66     0.04477        1.0080 ; qtot   -0.859
        67           h66bf         1   UNL       h66        67     0.04477        1.0080 ; qtot   -0.814
        68           h67bf         1   UNL       h67        68     0.07796        1.0080 ; qtot   -0.736
        69           h68bf         1   UNL       h68        69     0.51180        1.0080 ; qtot   -0.225
        70           h69bf         1   UNL       h69        70     0.22466        1.0080 ; qtot   -0.000

[ bonds ]
;       ai        aj funct               r               k
         1         3     1        0.141123   274944.215527
         1         7     1        0.148510   182881.761523
         1        11     1        0.140550   291243.837402
         2        10     1        0.175646   151017.041650
         3         4     1        0.138370   281726.667480
         3         8     1        0.140970   277026.485889
         4         5     1        0.137079   301485.137598
         4        69     1        0.101325   413220.742236
         5         6     1        0.136316   398623.321924
         5        12     1        0.150827   169889.297461
         6         7     1        0.145929   219831.660449
         6        70     1        0.108279   331012.879980
         7        27     1        0.123659   591994.987402
         8         9     1        0.138685   338270.092334
         8        28     1        0.108640   318114.775537
         9        10     1        0.140542   283805.209424
         9        29     1        0.108452   326016.442383
        10        11     1        0.138553   319239.276611
        11        30     1        0.108409   327281.014502
        12        13     1        0.136230   310047.015332
        12        15     1        0.123341   589011.486914
        13        14     1        0.146573   188409.281616
        13        31     1        0.101281   416329.246875
        14        16     1        0.154744   156916.777881
        14        20     1        0.153870   173152.327148
        14        32     1        0.109294   301814.821680
        16        17     1        0.153890   171755.268506
        16        21     1        0.146250   191046.869189
        16        68     1        0.109290   301765.586133
        17        18     1        0.154579   164893.255688
        17        55     1        0.109326   300596.548340
        17        56     1        0.109326   300596.548340
        18        19     1        0.154661   163666.440186
        18        50     1        0.153191   158389.847729
        18        57     1        0.109414   302100.760693
        19        20     1        0.153693   181138.049390
        19        58     1        0.109447   297470.142188
        19        59     1        0.109447   297470.142188
        20        60     1        0.109408   298814.185791
        20        61     1        0.109408   298814.185791
        21        22     1        0.136095   315450.182471
        21        33     1        0.101409   412617.504639
        22        23     1        0.149761   181928.244165
        22        24     1        0.123205   595504.348047
        23        25     1        0.130744   394780.497705
        23        26     1        0.175753   114860.619019
        25        34     1        0.137483   250388.573877
        26        35     1        0.173418   163411.796899
        34        35     1        0.137232   358668.241504
        34        39     1        0.150284   209899.921094
        35        36     1        0.150545   205958.217187
        36        37     1        0.146468   191918.016602
        36        41     1        0.110015   279945.249805
        36        42     1        0.110015   279945.249805
        37        38     1        0.146781   189560.941406
        37        40     1        0.146077   206296.839258
        38        39     1        0.153813   178870.826514
        38        43     1        0.109814   285833.034668
        38        44     1        0.109814   285833.034668
        39        45     1        0.109539   296322.146973
        39        46     1        0.109539   296322.146973
        40        47     1        0.109765   288786.094922
        40        48     1        0.109765   288786.094922
        40        49     1        0.109765   288786.094922
        50        51     1        0.123512   586720.399609
        50        52     1        0.137606   276714.984229
        52        53     1        0.145947   208517.482446
        52        54     1        0.145947   208517.482446
        53        62     1        0.109324   300806.693213
        53        63     1        0.109324   300806.693213
        53        64     1        0.109324   300806.693213
        54        65     1        0.109324   300806.693213
        54        66     1        0.109324   300806.693213
        54        67     1        0.109324   300806.693213

[ angles ]
;       ai        aj        ak funct           theta             cth
         1         3         4     1      119.214798      701.364260
         1         3         8     1      120.063965      597.344782
         1         7         6     1      114.705978      547.349761
         1         7        27     1      122.097252      527.610885
         1        11        10     1      119.844261      587.274734
         1        11        30     1      118.147690      411.981822
         2        10         9     1      118.960449      389.875911
         2        10        11     1      119.974991      339.725497
         3         1         7     1      120.721207      746.675072
         3         1        11     1      119.395004      775.828491
         3         4         5     1      122.274658      484.935055
         3         4        69     1      119.708839      412.467729
         3         8         9     1      120.004166      748.132539
         3         8        28     1      120.003929      440.757548
         4         3         8     1      120.521408      486.859564
         4         5         6     1      121.266281      571.050242
         4         5        12     1      113.968369      404.266678
         5         4        69     1      116.989365      416.930084
         5         6         7     1      121.925232      818.073957
         5         6        70     1      120.481873      422.613942
         5        12        13     1      115.860535      456.054883
         5        12        15     1      120.298851      546.007020
         6         5        12     1      124.256485      488.904799
         6         7        27     1      122.874733      575.835385
         7         1        11     1      119.890854      517.569183
         7         6        70     1      117.964218      459.141042
         8         9        10     1      119.778519      622.348549
         8         9        29     1      120.406944      416.686715
         9         8        28     1      119.889603      447.743607
         9        10        11     1      120.900772      651.321804
        10         9        29     1      119.916733      430.520104
        10        11        30     1      121.974998      397.635776
        12        13        14     1      122.763405      522.471797
        12        13        31     1      117.923462      419.965712
        13        12        15     1      123.938126      593.927087
        13        14        16     1      111.227882      549.922753
        13        14        20     1      111.608871      626.883556
        13        14        32     1      106.270493      527.911105
        14        13        31     1      116.401527      407.884744
        14        16        17     1      110.930321      562.042793
        14        16        21     1      111.247452      548.068440
        14        16        68     1      107.772316      470.612918
        14        20        19     1      111.582130      623.435472
        14        20        60     1      108.996597      497.333098
        14        20        61     1      108.996597      497.333098
        16        14        20     1      110.881104      555.231726
        16        14        32     1      107.703758      472.907077
        16        17        18     1      111.939430      596.757301
        16        17        55     1      109.082336      493.142969
        16        17        56     1      109.082336      493.142969
        16        21        22     1      123.281532      523.533821
        16        21        33     1      117.985329      388.342599
        17        16        21     1      111.416893      612.846063
        17        16        68     1      108.673912      471.627763
        17        18        19     1      110.560959      569.917990
        17        18        50     1      110.802452      642.130488
        17        18        57     1      107.640671      495.211858
        18        17        55     1      109.789185      465.155383
        18        17        56     1      109.789185      465.155383
        18        19        20     1      111.603378      627.166571
        18        19        58     1      109.459435      468.787845
        18        19        59     1      109.459435      468.787845
        18        50        51     1      120.367775      453.866799
        18        50        52     1      118.348633      449.080890
        19        18        50     1      111.026161      653.509377
        19        18        57     1      107.798851      493.236244
        19        20        60     1      109.998474      502.411408
        19        20        61     1      109.998474      502.411408
        20        14        32     1      108.832176      471.791456
        20        19        58     1      109.708351      513.116564
        20        19        59     1      109.708351      513.116564
        21        16        68     1      106.369919      527.599138
        21        22        23     1      114.245560      430.111414
        21        22        24     1      124.890869      615.174089
        22        21        33     1      117.270615      420.964947
        22        23        25     1      124.340652      359.309363
        22        23        26     1      120.844772      468.365589
        23        22        24     1      120.964073      537.680773
        23        25        34     1      111.406593      328.705787
        23        26        35     1       88.551132      167.360000
        25        23        26     1      114.891418      167.360000
        25        34        35     1      115.272217      312.892188
        25        34        39     1      122.848999      461.667684
        26        35        34     1      110.263878      167.360000
        26        35        36     1      125.788002      401.332369
        34        35        36     1      123.996292      562.620314
        34        39        38     1      109.429955      644.587349
        34        39        45     1      109.759384      484.571854
        34        39        46     1      109.759384      484.571854
        35        34        39     1      121.676254      406.530862
        35        36        37     1      110.200546      563.933816
        35        36        41     1      110.205734      462.983196
        35        36        42     1      110.205734      462.983196
        36        37        38     1      111.045578      613.756014
        36        37        40     1      111.203835      630.245325
        37        36        41     1      109.551048      459.134690
        37        36        42     1      109.551048      459.134690
        37        38        39     1      112.270889      625.644432
        37        38        43     1      109.041969      476.770682
        37        38        44     1      109.041969      476.770682
        37        40        47     1      110.858498      481.423224
        37        40        48     1      110.858498      481.423224
        37        40        49     1      110.858498      481.423224
        38        37        40     1      112.192528      649.121399
        38        39        45     1      110.261795      502.853519
        38        39        46     1      110.261795      502.853519
        39        38        43     1      109.631447      493.664916
        39        38        44     1      109.631447      493.664916
        41        36        42     1      106.585083      354.341693
        43        38        44     1      107.114723      348.812845
        45        39        46     1      106.901878      363.316136
        47        40        48     1      108.062943      347.504005
        47        40        49     1      108.062943      347.504005
        48        40        49     1      108.062943      347.504005
        50        18        57     1      108.212730      515.178845
        50        52        53     1      122.129654      505.902714
        50        52        54     1      122.129654      505.902714
        51        50        52     1      121.081711      636.267423
        52        53        62     1      110.326584      477.859265
        52        53        63     1      110.326584      477.859265
        52        53        64     1      110.326584      477.859265
        52        54        65     1      110.326584      477.859265
        52        54        66     1      110.326584      477.859265
        52        54        67     1      110.326584      477.859265
        53        52        54     1      114.947632      573.331217
        55        17        56     1      107.084274      355.159487
        58        19        59     1      106.645180      359.821255
        60        20        61     1      106.839844      356.387024
        62        53        63     1      108.724709      349.793087
        62        53        64     1      108.724709      349.793087
        63        53        64     1      108.724709      349.793087
        65        54        66     1      108.724709      349.793087
        65        54        67     1      108.724709      349.793087
        66        54        67     1      108.724709      349.793087

[ dihedrals ] ; propers for gromacs 4.5 or higher, use funct 9
;       ai        aj        ak        al funct           phase               k        pn
         1         3         4         5     9        0.000000        0.231350         1
         1         3         4         5     9      180.000000        5.181505         2
         1         3         4         5     9        0.000000        0.079516         3
         1         3         4         5     9      180.000000        0.244964         4
         1         3         4        69     9        0.000000        0.509318         1
         1         3         4        69     9      180.000000        3.761066         2
         1         3         4        69     9        0.000000        0.235575         3
         1         3         4        69     9      180.000000        0.225760         4
         1         3         8         9     9        0.000000        0.030927         1
         1         3         8         9     9      180.000000       16.488181         2
         1         3         8         9     9        0.000000       -0.934182         3
         1         3         8         9     9      180.000000       -0.230895         4
         1         3         8        28     9        0.000000        0.076782         1
         1         3         8        28     9      180.000000       11.951330         2
         1         3         8        28     9        0.000000       -0.240086         3
         1         3         8        28     9      180.000000        0.077237         4
         1         7         6         5     9        0.000000        0.662310         1
         1         7         6         5     9      180.000000        2.971832         2
         1         7         6         5     9        0.000000        0.244144         3
         1         7         6         5     9      180.000000       -0.074433         4
         1         7         6        70     9        0.000000       -0.702464         1
         1         7         6        70     9      180.000000        5.761097         2
         1         7         6        70     9        0.000000        0.023427         3
         1         7         6        70     9      180.000000        0.309396         4
         1        11        10         2     9        0.000000        0.276600         1
         1        11        10         2     9      180.000000       19.760515         2
         1        11        10         2     9        0.000000        0.326802         3
         1        11        10         2     9      180.000000       -0.780162         4
         1        11        10         9     9        0.000000       -0.127308         1
         1        11        10         9     9      180.000000       17.867555         2
         1        11        10         9     9        0.000000       -1.268255         3
         1        11        10         9     9      180.000000       -0.433310         4
         2        10         9         8     9        0.000000        0.240083         1
         2        10         9         8     9      180.000000       17.269562         2
         2        10         9         8     9        0.000000        0.160875         3
         2        10         9         8     9      180.000000       -0.428292         4
         2        10         9        29     9        0.000000        0.179254         1
         2        10         9        29     9      180.000000       12.644638         2
         2        10         9        29     9        0.000000       -0.159238         3
         2        10         9        29     9      180.000000        0.253539         4
         2        10        11        30     9        0.000000        0.123421         1
         2        10        11        30     9      180.000000       13.781944         2
         2        10        11        30     9        0.000000       -0.152775         3
         2        10        11        30     9      180.000000        0.303262         4
         3         1         7         6     9        0.000000        0.430509         1
         3         1         7         6     9      180.000000        4.087130         2
         3         1         7         6     9        0.000000        0.151541         3
         3         1         7         6     9      180.000000        0.074396         4
         3         1         7        27     9        0.000000       -0.124610         1
         3         1         7        27     9      180.000000        5.338238         2
         3         1         7        27     9        0.000000       -0.031518         3
         3         1         7        27     9      180.000000       -0.176015         4
         3         1        11        10     9        0.000000       -0.019899         1
         3         1        11        10     9      180.000000       18.035797         2
         3         1        11        10     9        0.000000       -1.203722         3
         3         1        11        10     9      180.000000       -0.375455         4
         3         1        11        30     9        0.000000        0.172464         1
         3         1        11        30     9      180.000000       13.819833         2
         3         1        11        30     9        0.000000       -0.422253         3
         3         1        11        30     9      180.000000       -0.065426         4
         3         4         5         6     9        0.000000       -0.433655         1
         3         4         5         6     9      180.000000        8.327453         2
         3         4         5         6     9        0.000000       -1.099900         3
         3         4         5         6     9      180.000000        0.094786         4
         3         4         5        12     9        0.000000        1.649345         1
         3         4         5        12     9      180.000000        6.445726         2
         3         4         5        12     9        0.000000        0.611772         3
         3         4         5        12     9      180.000000       -0.296956         4
         3         8         9        10     9        0.000000        0.094085         1
         3         8         9        10     9      180.000000       19.461644         2
         3         8         9        10     9        0.000000       -1.685291         3
         3         8         9        10     9      180.000000       -0.475374         4
         3         8         9        29     9        0.000000       -0.039475         1
         3         8         9        29     9      180.000000       15.321763         2
         3         8         9        29     9        0.000000       -0.659931         3
         3         8         9        29     9      180.000000        0.013371         4
         4         3         1         7     9        0.000000        0.280953         1
         4         3         1         7     9      180.000000       14.000167         2
         4         3         1         7     9        0.000000        0.251137         3
         4         3         1         7     9      180.000000       -0.402869         4
         4         3         1        11     9        0.000000        0.384638         1
         4         3         1        11     9      180.000000       17.187965         2
         4         3         1        11     9        0.000000       -0.100039         3
         4         3         1        11     9      180.000000       -0.516294         4
         4         3         8         9     9        0.000000        0.269046         1
         4         3         8         9     9      180.000000       19.474079         2
         4         3         8         9     9        0.000000        0.171502         3
         4         3         8         9     9      180.000000       -0.622958         4
         4         3         8        28     9        0.000000       -0.255060         1
         4         3         8        28     9      180.000000       14.985897         2
         4         3         8        28     9        0.000000       -0.298012         3
         4         3         8        28     9      180.000000        0.009774         4
         4         5         6         7     9        0.000000       -0.610859         1
         4         5         6         7     9      180.000000       24.499421         2
         4         5         6         7     9        0.000000       -1.283712         3
         4         5         6         7     9      180.000000       -0.918626         4
         4         5         6        70     9        0.000000       -0.482596         1
         4         5         6        70     9      180.000000       22.798420         2
         4         5         6        70     9        0.000000       -0.833003         3
         4         5         6        70     9      180.000000       -0.397560         4
         4         5        12        13     9        0.000000        3.809850         1
         4         5        12        13     9      180.000000        4.412717         2
         4         5        12        13     9        0.000000       -0.056244         3
         4         5        12        13     9      180.000000       -0.163101         4
         4         5        12        15     9        0.000000       -1.333029         1
         4         5        12        15     9      180.000000        4.337040         2
         4         5        12        15     9        0.000000        0.201040         3
         4         5        12        15     9      180.000000        0.098497         4
         5         4         3         8     9        0.000000        0.113032         1
         5         4         3         8     9      180.000000        4.585497         2
         5         4         3         8     9        0.000000        0.249359         3
         5         4         3         8     9      180.000000        0.072437         4
         5         6         7        27     9        0.000000        0.321527         1
         5         6         7        27     9      180.000000        6.314542         2
         5         6         7        27     9        0.000000        0.329184         3
         5         6         7        27     9      180.000000       -0.550747         4
         5        12        13        14     9        0.000000        3.393985         1
         5        12        13        14     9      180.000000       11.817219         2
         5        12        13        14     9        0.000000        1.622437         3
         5        12        13        14     9      180.000000       -0.070471         4
         5        12        13        31     9        0.000000        0.790074         1
         5        12        13        31     9      180.000000       11.080844         2
         5        12        13        31     9        0.000000        0.355253         3
         5        12        13        31     9      180.000000        0.536394         4
         6         5         4        69     9        0.000000       -0.790661         1
         6         5         4        69     9      180.000000        4.879874         2
         6         5         4        69     9        0.000000       -0.188286         3
         6         5         4        69     9      180.000000        0.214744         4
         6         5        12        13     9        0.000000       -0.169111         1
         6         5        12        13     9      180.000000        2.182576         2
         6         5        12        13     9        0.000000        0.161123         3
         6         5        12        13     9      180.000000       -0.463878         4
         6         5        12        15     9        0.000000       -0.940134         1
         6         5        12        15     9      180.000000        2.332671         2
         6         5        12        15     9        0.000000       -0.013543         3
         6         5        12        15     9      180.000000       -0.030179         4
         6         7         1        11     9        0.000000       -0.697716         1
         6         7         1        11     9      180.000000        4.551899         2
         6         7         1        11     9        0.000000        0.111328         3
         6         7         1        11     9      180.000000        0.131105         4
         7         1         3         8     9        0.000000        0.080665         1
         7         1         3         8     9      180.000000       12.428650         2
         7         1         3         8     9        0.000000       -0.161593         3
         7         1         3         8     9      180.000000       -0.125678         4
         7         1        11        10     9        0.000000        0.061428         1
         7         1        11        10     9      180.000000       14.586749         2
         7         1        11        10     9        0.000000       -0.110466         3
         7         1        11        10     9      180.000000       -0.282422         4
         7         1        11        30     9        0.000000        0.136819         1
         7         1        11        30     9      180.000000       11.966616         2
         7         1        11        30     9        0.000000       -0.299674         3
         7         1        11        30     9      180.000000        0.107061         4
         7         6         5        12     9        0.000000        0.511794         1
         7         6         5        12     9      180.000000       18.145956         2
         7         6         5        12     9        0.000000        0.474283         3
         7         6         5        12     9      180.000000       -0.919450         4
         8         3         1        11     9        0.000000        0.199342         1
         8         3         1        11     9      180.000000       13.702694         2
         8         3         1        11     9        0.000000       -0.804232         3
         8         3         1        11     9      180.000000       -0.151804         4
         8         3         4        69     9        0.000000       -1.091082         1
         8         3         4        69     9      180.000000        3.578318         2
         8         3         4        69     9        0.000000       -0.085714         3
         8         3         4        69     9      180.000000        0.169664         4
         8         9        10        11     9        0.000000       -0.124134         1
         8         9        10        11     9      180.000000       16.702397         2
         8         9        10        11     9        0.000000       -1.183304         3
         8         9        10        11     9      180.000000       -0.319533         4
         9        10        11        30     9        0.000000        0.047506         1
         9        10        11        30     9      180.000000       14.023329         2
         9        10        11        30     9        0.000000       -0.456503         3
         9        10        11        30     9      180.000000        0.086003         4
        10         9         8        28     9        0.000000        0.037248         1
        10         9         8        28     9      180.000000       14.696035         2
        10         9         8        28     9        0.000000       -0.451790         3
        10         9         8        28     9      180.000000        0.207028         4
        11         1         7        27     9        0.000000       -0.985941         1
        11         1         7        27     9      180.000000        4.524844         2
        11         1         7        27     9        0.000000       -0.042548         3
        11         1         7        27     9      180.000000        0.005672         4
        11        10         9        29     9        0.000000       -0.056616         1
        11        10         9        29     9      180.000000       12.974737         2
        11        10         9        29     9        0.000000       -0.581855         3
        11        10         9        29     9      180.000000        0.125410         4
        12         5         4        69     9        0.000000       -0.235221         1
        12         5         4        69     9      180.000000        3.517501         2
        12         5         4        69     9        0.000000       -0.019277         3
        12         5         4        69     9      180.000000        0.062414         4
        12         5         6        70     9        0.000000        0.160775         1
        12         5         6        70     9      180.000000       15.845096         2
        12         5         6        70     9        0.000000       -0.101790         3
        12         5         6        70     9      180.000000        0.084285         4
        12        13        14        16     9        0.000000        1.125865         1
        12        13        14        16     9      180.000000       -0.571590         2
        12        13        14        16     9        0.000000        0.411731         3
        12        13        14        16     9      180.000000        0.163300         4
        12        13        14        20     9        0.000000       -0.080973         1
        12        13        14        20     9      180.000000       -0.225056         2
        12        13        14        20     9        0.000000        0.473155         3
        12        13        14        20     9      180.000000        0.034404         4
        12        13        14        32     9        0.000000       -0.137680         1
        12        13        14        32     9      180.000000        0.149623         2
        12        13        14        32     9        0.000000        0.229541         3
        12        13        14        32     9      180.000000        0.129811         4
        13        14        16        17     9        0.000000       -0.587775         1
        13        14        16        17     9      180.000000        0.048898         2
        13        14        16        17     9        0.000000        0.025605         3
        13        14        16        17     9      180.000000        0.314111         4
        13        14        16        21     9        0.000000        2.757067         1
        13        14        16        21     9      180.000000        0.088207         2
        13        14        16        21     9        0.000000       -0.532135         3
        13        14        16        21     9      180.000000        0.060196         4
        13        14        16        68     9        0.000000       -0.493245         1
        13        14        16        68     9      180.000000        0.059974         2
        13        14        16        68     9        0.000000        0.368082         3
        13        14        16        68     9      180.000000       -0.041766         4
        13        14        20        19     9        0.000000       -0.271135         1
        13        14        20        19     9      180.000000        0.640922         2
        13        14        20        19     9        0.000000        0.135773         3
        13        14        20        19     9      180.000000        0.183830         4
        13        14        20        60     9        0.000000        0.024169         1
        13        14        20        60     9      180.000000        0.086303         2
        13        14        20        60     9        0.000000        0.354009         3
        13        14        20        60     9      180.000000       -0.069033         4
        13        14        20        61     9        0.000000        0.024169         1
        13        14        20        61     9      180.000000        0.086303         2
        13        14        20        61     9        0.000000        0.354009         3
        13        14        20        61     9      180.000000       -0.069033         4
        14        13        12        15     9        0.000000       -1.305009         1
        14        13        12        15     9      180.000000       10.013854         2
        14        13        12        15     9        0.000000        0.206802         3
        14        13        12        15     9      180.000000       -0.920909         4
        14        16        17        18     9        0.000000        3.468498         1
        14        16        17        18     9      180.000000       -1.753699         2
        14        16        17        18     9        0.000000       -0.101090         3
        14        16        17        18     9      180.000000        0.006632         4
        14        16        17        55     9        0.000000       -0.095769         1
        14        16        17        55     9      180.000000        0.068955         2
        14        16        17        55     9        0.000000        0.167654         3
        14        16        17        55     9      180.000000        0.050135         4
        14        16        17        56     9        0.000000       -0.095769         1
        14        16        17        56     9      180.000000        0.068955         2
        14        16        17        56     9        0.000000        0.167654         3
        14        16        17        56     9      180.000000        0.050135         4
        14        16        21        22     9        0.000000        1.047086         1
        14        16        21        22     9      180.000000       -0.435467         2
        14        16        21        22     9        0.000000        0.341626         3
        14        16        21        22     9      180.000000        0.177125         4
        14        16        21        33     9        0.000000        0.556243         1
        14        16        21        33     9      180.000000       -1.089034         2
        14        16        21        33     9        0.000000        0.540484         3
        14        16        21        33     9      180.000000        0.020368         4
        14        20        19        18     9        0.000000        1.286469         1
        14        20        19        18     9      180.000000       -1.613377         2
        14        20        19        18     9        0.000000        0.189687         3
        14        20        19        18     9      180.000000        0.082366         4
        14        20        19        58     9        0.000000       -0.093600         1
        14        20        19        58     9      180.000000        0.067057         2
        14        20        19        58     9        0.000000        0.237211         3
        14        20        19        58     9      180.000000        0.021571         4
        14        20        19        59     9        0.000000       -0.093600         1
        14        20        19        59     9      180.000000        0.067057         2
        14        20        19        59     9        0.000000        0.237211         3
        14        20        19        59     9      180.000000        0.021571         4
        15        12        13        31     9        0.000000       -0.296044         1
        15        12        13        31     9      180.000000       11.299200         2
        15        12        13        31     9        0.000000        0.252507         3
        15        12        13        31     9      180.000000        0.767130         4
        16        14        13        31     9        0.000000        0.627201         1
        16        14        13        31     9      180.000000       -0.997283         2
        16        14        13        31     9        0.000000        0.605536         3
        16        14        13        31     9      180.000000        0.033307         4
        16        14        20        19     9        0.000000        2.704952         1
        16        14        20        19     9      180.000000       -1.619015         2
        16        14        20        19     9        0.000000        0.051277         3
        16        14        20        19     9      180.000000        0.054020         4
        16        14        20        60     9        0.000000       -0.088079         1
        16        14        20        60     9      180.000000        0.056394         2
        16        14        20        60     9        0.000000        0.179115         3
        16        14        20        60     9      180.000000        0.057003         4
        16        14        20        61     9        0.000000       -0.088079         1
        16        14        20        61     9      180.000000        0.056394         2
        16        14        20        61     9        0.000000        0.179115         3
        16        14        20        61     9      180.000000        0.057003         4
        16        17        18        19     9        0.000000        2.167701         1
        16        17        18        19     9      180.000000       -2.095071         2
        16        17        18        19     9        0.000000        0.100990         3
        16        17        18        19     9      180.000000       -0.067359         4
        16        17        18        50     9        0.000000       -0.969890         1
        16        17        18        50     9      180.000000       -0.492010         2
        16        17        18        50     9        0.000000        0.043330         3
        16        17        18        50     9      180.000000        0.044241         4
        16        17        18        57     9        0.000000       -0.731592         1
        16        17        18        57     9      180.000000        0.097424         2
        16        17        18        57     9        0.000000        0.165659         3
        16        17        18        57     9      180.000000        0.052140         4
        16        21        22        23     9        0.000000        1.551351         1
        16        21        22        23     9      180.000000       10.806241         2
        16        21        22        23     9        0.000000        0.659059         3
        16        21        22        23     9      180.000000       -0.282031         4
        16        21        22        24     9        0.000000       -0.687196         1
        16        21        22        24     9      180.000000       10.163927         2
        16        21        22        24     9        0.000000        0.483358         3
        16        21        22        24     9      180.000000       -1.334168         4
        17        16        14        20     9        0.000000        3.338174         1
        17        16        14        20     9      180.000000       -1.616987         2
        17        16        14        20     9        0.000000        0.093008         3
        17        16        14        20     9      180.000000       -0.008297         4
        17        16        14        32     9        0.000000       -0.370741         1
        17        16        14        32     9      180.000000        0.082073         2
        17        16        14        32     9        0.000000        0.302326         3
        17        16        14        32     9      180.000000        0.054174         4
        17        16        21        22     9        0.000000       -0.005175         1
        17        16        21        22     9      180.000000       -0.401672         2
        17        16        21        22     9        0.000000        0.370215         3
        17        16        21        22     9      180.000000        0.053218         4
        17        16        21        33     9        0.000000       -0.136586         1
        17        16        21        33     9      180.000000       -0.353037         2
        17        16        21        33     9        0.000000        0.351756         3
        17        16        21        33     9      180.000000       -0.038850         4
        17        18        19        20     9        0.000000        0.883010         1
        17        18        19        20     9      180.000000       -1.399872         2
        17        18        19        20     9        0.000000        0.314248         3
        17        18        19        20     9      180.000000       -0.050797         4
        17        18        19        58     9        0.000000       -0.056826         1
        17        18        19        58     9      180.000000        0.050149         2
        17        18        19        58     9        0.000000        0.270717         3
        17        18        19        58     9      180.000000        0.019384         4
        17        18        19        59     9        0.000000       -0.056826         1
        17        18        19        59     9      180.000000        0.050149         2
        17        18        19        59     9        0.000000        0.270717         3
        17        18        19        59     9      180.000000        0.019384         4
        17        18        50        51     9        0.000000       -0.455386         1
        17        18        50        51     9      180.000000        0.737900         2
        17        18        50        51     9        0.000000        0.287526         3
        17        18        50        51     9      180.000000        0.250951         4
        17        18        50        52     9        0.000000        0.270994         1
        17        18        50        52     9      180.000000        1.080078         2
        17        18        50        52     9        0.000000       -0.027563         3
        17        18        50        52     9      180.000000        0.001527         4
        18        17        16        21     9        0.000000       -0.378319         1
        18        17        16        21     9      180.000000        0.218820         2
        18        17        16        21     9        0.000000        0.056326         3
        18        17        16        21     9      180.000000        0.226509         4
        18        17        16        68     9        0.000000       -0.669048         1
        18        17        16        68     9      180.000000        0.139249         2
        18        17        16        68     9        0.000000        0.154171         3
        18        17        16        68     9      180.000000        0.076395         4
        18        19        20        60     9        0.000000       -0.080258         1
        18        19        20        60     9      180.000000        0.083233         2
        18        19        20        60     9        0.000000        0.213417         3
        18        19        20        60     9      180.000000        0.012387         4
        18        19        20        61     9        0.000000       -0.080258         1
        18        19        20        61     9      180.000000        0.083233         2
        18        19        20        61     9        0.000000        0.213417         3
        18        19        20        61     9      180.000000        0.012387         4
        18        50        52        53     9        0.000000        7.685850         1
        18        50        52        53     9      180.000000       10.413246         2
        18        50        52        53     9        0.000000        0.340038         3
        18        50        52        53     9      180.000000       -0.442447         4
        18        50        52        54     9        0.000000        7.685850         1
        18        50        52        54     9      180.000000       10.413246         2
        18        50        52        54     9        0.000000        0.340038         3
        18        50        52        54     9      180.000000       -0.442447         4
        19        18        17        55     9        0.000000       -0.052172         1
        19        18        17        55     9      180.000000        0.058083         2
        19        18        17        55     9        0.000000        0.229959         3
        19        18        17        55     9      180.000000        0.057798         4
        19        18        17        56     9        0.000000       -0.052172         1
        19        18        17        56     9      180.000000        0.058083         2
        19        18        17        56     9        0.000000        0.229959         3
        19        18        17        56     9      180.000000        0.057798         4
        19        18        50        51     9        0.000000       -0.698289         1
        19        18        50        51     9      180.000000        0.744054         2
        19        18        50        51     9        0.000000        0.336890         3
        19        18        50        51     9      180.000000        0.225666         4
        19        18        50        52     9        0.000000        0.291846         1
        19        18        50        52     9      180.000000        1.098654         2
        19        18        50        52     9        0.000000        0.042828         3
        19        18        50        52     9      180.000000       -0.012816         4
        19        20        14        32     9        0.000000       -0.425093         1
        19        20        14        32     9      180.000000        0.169628         2
        19        20        14        32     9        0.000000        0.244107         3
        19        20        14        32     9      180.000000        0.025053         4
        20        14        13        31     9        0.000000        0.137311         1
        20        14        13        31     9      180.000000        0.025031         2
        20        14        13        31     9        0.000000        0.406371         3
        20        14        13        31     9      180.000000       -0.030725         4
        20        14        16        21     9        0.000000       -0.501384         1
        20        14        16        21     9      180.000000        0.260082         2
        20        14        16        21     9        0.000000        0.139038         3
        20        14        16        21     9      180.000000        0.206005         4
        20        14        16        68     9        0.000000       -0.387948         1
        20        14        16        68     9      180.000000        0.125629         2
        20        14        16        68     9        0.000000        0.322384         3
        20        14        16        68     9      180.000000        0.047288         4
        20        19        18        50     9        0.000000       -1.205837         1
        20        19        18        50     9      180.000000       -0.024594         2
        20        19        18        50     9        0.000000        0.127041         3
        20        19        18        50     9      180.000000        0.096010         4
        20        19        18        57     9        0.000000       -0.470892         1
        20        19        18        57     9      180.000000        0.118851         2
        20        19        18        57     9        0.000000        0.267874         3
        20        19        18        57     9      180.000000        0.031479         4
        21        16        14        32     9        0.000000       -0.407899         1
        21        16        14        32     9      180.000000        0.016147         2
        21        16        14        32     9        0.000000        0.353801         3
        21        16        14        32     9      180.000000       -0.010380         4
        21        16        17        55     9        0.000000        0.122902         1
        21        16        17        55     9      180.000000        0.128407         2
        21        16        17        55     9        0.000000        0.386720         3
        21        16        17        55     9      180.000000       -0.072984         4
        21        16        17        56     9        0.000000        0.122902         1
        21        16        17        56     9      180.000000        0.128407         2
        21        16        17        56     9        0.000000        0.386720         3
        21        16        17        56     9      180.000000       -0.072984         4
        21        22        23        25     9        0.000000        2.923749         1
        21        22        23        25     9      180.000000        2.022095         2
        21        22        23        25     9        0.000000        0.151149         3
        21        22        23        25     9      180.000000       -0.373995         4
        21        22        23        26     9        0.000000       -0.304414         1
        21        22        23        26     9      180.000000        3.200684         2
        21        22        23        26     9        0.000000        0.463910         3
        21        22        23        26     9      180.000000       -0.514292         4
        22        21        16        68     9        0.000000        0.020172         1
        22        21        16        68     9      180.000000        0.144925         2
        22        21        16        68     9        0.000000        0.214736         3
        22        21        16        68     9      180.000000        0.179789         4
        22        23        25        34     9        0.000000        0.509539         1
        22        23        25        34     9      180.000000       28.889665         2
        22        23        25        34     9        0.000000        0.564950         3
        22        23        25        34     9      180.000000       -0.961131         4
        22        23        26        35     9        0.000000       -1.127037         1
        22        23        26        35     9      180.000000       15.581777         2
        22        23        26        35     9        0.000000       -0.036420         3
        22        23        26        35     9      180.000000       -0.602861         4
        23        22        21        33     9        0.000000       -0.415752         1
        23        22        21        33     9      180.000000        9.010384         2
        23        22        21        33     9        0.000000        0.175298         3
        23        22        21        33     9      180.000000       -0.065606         4
        23        25        34        35     9        0.000000       -0.228535         1
        23        25        34        35     9      180.000000       27.756785         2
        23        25        34        35     9        0.000000       -2.863850         3
        23        25        34        35     9      180.000000       -0.158646         4
        23        25        34        39     9        0.000000        0.109642         1
        23        25        34        39     9      180.000000       22.524852         2
        23        25        34        39     9        0.000000        0.728535         3
        23        25        34        39     9      180.000000       -0.420500         4
        23        26        35        34     9        0.000000        0.019507         1
        23        26        35        34     9      180.000000       29.322726         2
        23        26        35        34     9        0.000000       -6.425576         3
        23        26        35        34     9      180.000000       -0.474428         4
        23        26        35        36     9        0.000000        0.448650         1
        23        26        35        36     9      180.000000       11.835073         2
        23        26        35        36     9        0.000000        0.424426         3
        23        26        35        36     9      180.000000       -0.134990         4
        24        22        21        33     9        0.000000       -0.005332         1
        24        22        21        33     9      180.000000       10.730372         2
        24        22        21        33     9        0.000000       -0.060300         3
        24        22        21        33     9      180.000000       -0.147584         4
        24        22        23        25     9        0.000000       -1.392140         1
        24        22        23        25     9      180.000000        3.582888         2
        24        22        23        25     9        0.000000        0.461599         3
        24        22        23        25     9      180.000000        0.214010         4
        24        22        23        26     9        0.000000        0.210149         1
        24        22        23        26     9      180.000000        4.370762         2
        24        22        23        26     9        0.000000       -0.343613         3
        24        22        23        26     9      180.000000        0.218765         4
        25        23        26        35     9        0.000000       -0.590193         1
        25        23        26        35     9      180.000000       31.322398         2
        25        23        26        35     9        0.000000       -5.851399         3
        25        23        26        35     9      180.000000       -0.585767         4
        25        34        35        26     9        0.000000       -0.800174         1
        25        34        35        26     9      180.000000       28.383673         2
        25        34        35        26     9        0.000000       -5.049933         3
        25        34        35        26     9      180.000000       -1.030530         4
        25        34        35        36     9        0.000000        0.006237         1
        25        34        35        36     9      180.000000       19.786124         2
        25        34        35        36     9        0.000000       -0.767005         3
        25        34        35        36     9      180.000000       -1.000863         4
        25        34        39        38     9        0.000000       -1.761287         1
        25        34        39        38     9      180.000000       -0.518566         2
        25        34        39        38     9        0.000000        0.250165         3
        25        34        39        38     9      180.000000        0.137553         4
        25        34        39        45     9        0.000000        0.061059         1
        25        34        39        45     9      180.000000        0.031081         2
        25        34        39        45     9        0.000000        0.254497         3
        25        34        39        45     9      180.000000       -0.033807         4
        25        34        39        46     9        0.000000        0.061059         1
        25        34        39        46     9      180.000000        0.031081         2
        25        34        39        46     9        0.000000        0.254497         3
        25        34        39        46     9      180.000000       -0.033807         4
        26        23        25        34     9        0.000000       -0.414856         1
        26        23        25        34     9      180.000000       36.017356         2
        26        23        25        34     9        0.000000       -4.165866         3
        26        23        25        34     9      180.000000        0.025250         4
        26        35        34        39     9        0.000000        0.102614         1
        26        35        34        39     9      180.000000       18.114968         2
        26        35        34        39     9        0.000000       -0.791874         3
        26        35        34        39     9      180.000000       -0.971119         4
        26        35        36        37     9        0.000000       -3.606837         1
        26        35        36        37     9      180.000000       -0.362514         2
        26        35        36        37     9        0.000000        0.387711         3
        26        35        36        37     9      180.000000        0.164191         4
        26        35        36        41     9        0.000000        0.050382         1
        26        35        36        41     9      180.000000        0.088073         2
        26        35        36        41     9        0.000000        0.411892         3
        26        35        36        41     9      180.000000       -0.037587         4
        26        35        36        42     9        0.000000        0.050382         1
        26        35        36        42     9      180.000000        0.088073         2
        26        35        36        42     9        0.000000        0.411892         3
        26        35        36        42     9      180.000000       -0.037587         4
        27         7         6        70     9        0.000000       -1.239007         1
        27         7         6        70     9      180.000000        8.306297         2
        27         7         6        70     9        0.000000       -0.209190         3
        27         7         6        70     9      180.000000       -0.146066         4
        28         8         9        29     9        0.000000       -0.180692         1
        28         8         9        29     9      180.000000       12.133748         2
        28         8         9        29     9        0.000000       -0.762018         3
        28         8         9        29     9      180.000000        0.322015         4
        31        13        14        32     9        0.000000       -0.765398         1
        31        13        14        32     9      180.000000        0.057847         2
        31        13        14        32     9        0.000000        0.588503         3
        31        13        14        32     9      180.000000        0.190121         4
        32        14        16        68     9        0.000000        0.153976         1
        32        14        16        68     9      180.000000       -0.165299         2
        32        14        16        68     9        0.000000        0.415989         3
        32        14        16        68     9      180.000000       -0.051231         4
        32        14        20        60     9        0.000000        0.037004         1
        32        14        20        60     9      180.000000        0.014727         2
        32        14        20        60     9        0.000000        0.374143         3
        32        14        20        60     9      180.000000        0.011620         4
        32        14        20        61     9        0.000000        0.037004         1
        32        14        20        61     9      180.000000        0.014727         2
        32        14        20        61     9        0.000000        0.374143         3
        32        14        20        61     9      180.000000        0.011620         4
        33        21        16        68     9        0.000000       -0.794086         1
        33        21        16        68     9      180.000000        0.147692         2
        33        21        16        68     9        0.000000        0.562941         3
        33        21        16        68     9      180.000000        0.176200         4
        34        35        36        37     9        0.000000       -3.311658         1
        34        35        36        37     9      180.000000        0.893056         2
        34        35        36        37     9        0.000000       -0.312861         3
        34        35        36        37     9      180.000000        0.089561         4
        34        35        36        41     9        0.000000       -0.010515         1
        34        35        36        41     9      180.000000       -0.166834         2
        34        35        36        41     9        0.000000       -0.357655         3
        34        35        36        41     9      180.000000       -0.002483         4
        34        35        36        42     9        0.000000       -0.010515         1
        34        35        36        42     9      180.000000       -0.166834         2
        34        35        36        42     9        0.000000       -0.357655         3
        34        35        36        42     9      180.000000       -0.002483         4
        34        39        38        37     9        0.000000       -1.384129         1
        34        39        38        37     9      180.000000       -0.653292         2
        34        39        38        37     9        0.000000        0.502380         3
        34        39        38        37     9      180.000000       -0.119672         4
        34        39        38        43     9        0.000000        0.056682         1
        34        39        38        43     9      180.000000        0.029063         2
        34        39        38        43     9        0.000000        0.464816         3
        34        39        38        43     9      180.000000        0.029460         4
        34        39        38        44     9        0.000000        0.056682         1
        34        39        38        44     9      180.000000        0.029063         2
        34        39        38        44     9        0.000000        0.464816         3
        34        39        38        44     9      180.000000        0.029460         4
        35        34        39        38     9        0.000000       -0.581697         1
        35        34        39        38     9      180.000000       -0.178850         2
        35        34        39        38     9        0.000000       -0.539812         3
        35        34        39        38     9      180.000000        0.228285         4
        35        34        39        45     9        0.000000        0.001137         1
        35        34        39        45     9      180.000000       -0.132140         2
        35        34        39        45     9        0.000000       -0.440824         3
        35        34        39        45     9      180.000000        0.030108         4
        35        34        39        46     9        0.000000        0.001137         1
        35        34        39        46     9      180.000000       -0.132140         2
        35        34        39        46     9        0.000000       -0.440824         3
        35        34        39        46     9      180.000000        0.030108         4
        35        36        37        38     9        0.000000        1.757084         1
        35        36        37        38     9      180.000000       -1.262017         2
        35        36        37        38     9        0.000000        0.610032         3
        35        36        37        38     9      180.000000       -0.013762         4
        35        36        37        40     9        0.000000        0.088848         1
        35        36        37        40     9      180.000000        0.098174         2
        35        36        37        40     9        0.000000        0.957104         3
        35        36        37        40     9      180.000000        0.111039         4
        36        35        34        39     9        0.000000        0.173945         1
        36        35        34        39     9      180.000000       16.682661         2
        36        35        34        39     9        0.000000       -0.531422         3
        36        35        34        39     9      180.000000       -0.483502         4
        36        37        38        39     9        0.000000        2.929372         1
        36        37        38        39     9      180.000000       -2.275396         2
        36        37        38        39     9        0.000000        0.136332         3
        36        37        38        39     9      180.000000        0.386228         4
        36        37        38        43     9        0.000000       -0.123649         1
        36        37        38        43     9      180.000000        0.088231         2
        36        37        38        43     9        0.000000        0.293555         3
        36        37        38        43     9      180.000000        0.009401         4
        36        37        38        44     9        0.000000       -0.123649         1
        36        37        38        44     9      180.000000        0.088231         2
        36        37        38        44     9        0.000000        0.293555         3
        36        37        38        44     9      180.000000        0.009401         4
        36        37        40        47     9        0.000000       -0.036256         1
        36        37        40        47     9      180.000000        0.018735         2
        36        37        40        47     9        0.000000        1.024067         3
        36        37        40        47     9      180.000000        0.001601         4
        36        37        40        48     9        0.000000       -0.036256         1
        36        37        40        48     9      180.000000        0.018735         2
        36        37        40        48     9        0.000000        1.024067         3
        36        37        40        48     9      180.000000        0.001601         4
        36        37        40        49     9        0.000000       -0.036256         1
        36        37        40        49     9      180.000000        0.018735         2
        36        37        40        49     9        0.000000        1.024067         3
        36        37        40        49     9      180.000000        0.001601         4
        37        38        39        45     9        0.000000       -0.054085         1
        37        38        39        45     9      180.000000        0.034526         2
        37        38        39        45     9        0.000000        0.373195         3
        37        38        39        45     9      180.000000        0.083514         4
        37        38        39        46     9        0.000000       -0.054085         1
        37        38        39        46     9      180.000000        0.034526         2
        37        38        39        46     9        0.000000        0.373195         3
        37        38        39        46     9      180.000000        0.083514         4
        38        37        36        41     9        0.000000       -0.029691         1
        38        37        36        41     9      180.000000        0.036400         2
        38        37        36        41     9        0.000000        0.631979         3
        38        37        36        41     9      180.000000        0.071457         4
        38        37        36        42     9        0.000000       -0.029691         1
        38        37        36        42     9      180.000000        0.036400         2
        38        37        36        42     9        0.000000        0.631979         3
        38        37        36        42     9      180.000000        0.071457         4
        38        37        40        47     9        0.000000       -0.014100         1
        38        37        40        47     9      180.000000        0.015343         2
        38        37        40        47     9        0.000000        0.884158         3
        38        37        40        47     9      180.000000        0.019132         4
        38        37        40        48     9        0.000000       -0.014100         1
        38        37        40        48     9      180.000000        0.015343         2
        38        37        40        48     9        0.000000        0.884158         3
        38        37        40        48     9      180.000000        0.019132         4
        38        37        40        49     9        0.000000       -0.014100         1
        38        37        40        49     9      180.000000        0.015343         2
        38        37        40        49     9        0.000000        0.884158         3
        38        37        40        49     9      180.000000        0.019132         4
        39        38        37        40     9        0.000000        1.698500         1
        39        38        37        40     9      180.000000       -0.487751         2
        39        38        37        40     9        0.000000        0.450767         3
        39        38        37        40     9      180.000000        0.246699         4
        40        37        36        41     9        0.000000        0.111988         1
        40        37        36        41     9      180.000000        0.004567         2
        40        37        36        41     9        0.000000        0.981665         3
        40        37        36        41     9      180.000000       -0.069874         4
        40        37        36        42     9        0.000000        0.111988         1
        40        37        36        42     9      180.000000        0.004567         2
        40        37        36        42     9        0.000000        0.981665         3
        40        37        36        42     9      180.000000       -0.069874         4
        40        37        38        43     9        0.000000       -0.115413         1
        40        37        38        43     9      180.000000       -0.101300         2
        40        37        38        43     9        0.000000        0.611434         3
        40        37        38        43     9      180.000000       -0.123227         4
        40        37        38        44     9        0.000000       -0.115413         1
        40        37        38        44     9      180.000000       -0.101300         2
        40        37        38        44     9        0.000000        0.611434         3
        40        37        38        44     9      180.000000       -0.123227         4
        43        38        39        45     9        0.000000       -0.014895         1
        43        38        39        45     9      180.000000       -0.022227         2
        43        38        39        45     9        0.000000        0.401862         3
        43        38        39        45     9      180.000000       -0.001746         4
        43        38        39        46     9        0.000000       -0.014895         1
        43        38        39        46     9      180.000000       -0.022227         2
        43        38        39        46     9        0.000000        0.401862         3
        43        38        39        46     9      180.000000       -0.001746         4
        44        38        39        45     9        0.000000       -0.014895         1
        44        38        39        45     9      180.000000       -0.022227         2
        44        38        39        45     9        0.000000        0.401862         3
        44        38        39        45     9      180.000000       -0.001746         4
        44        38        39        46     9        0.000000       -0.014895         1
        44        38        39        46     9      180.000000       -0.022227         2
        44        38        39        46     9        0.000000        0.401862         3
        44        38        39        46     9      180.000000       -0.001746         4
        50        18        17        55     9        0.000000        0.178565         1
        50        18        17        55     9      180.000000        0.124017         2
        50        18        17        55     9        0.000000        0.213224         3
        50        18        17        55     9      180.000000       -0.042705         4
        50        18        17        56     9        0.000000        0.178565         1
        50        18        17        56     9      180.000000        0.124017         2
        50        18        17        56     9        0.000000        0.213224         3
        50        18        17        56     9      180.000000       -0.042705         4
        50        18        19        58     9        0.000000        0.159078         1
        50        18        19        58     9      180.000000        0.098531         2
        50        18        19        58     9        0.000000        0.249228         3
        50        18        19        58     9      180.000000       -0.047820         4
        50        18        19        59     9        0.000000        0.159078         1
        50        18        19        59     9      180.000000        0.098531         2
        50        18        19        59     9        0.000000        0.249228         3
        50        18        19        59     9      180.000000       -0.047820         4
        50        52        53        62     9        0.000000       -0.008626         1
        50        52        53        62     9      180.000000        0.038862         2
        50        52        53        62     9        0.000000        0.235749         3
        50        52        53        62     9      180.000000        0.020475         4
        50        52        53        63     9        0.000000       -0.008626         1
        50        52        53        63     9      180.000000        0.038862         2
        50        52        53        63     9        0.000000        0.235749         3
        50        52        53        63     9      180.000000        0.020475         4
        50        52        53        64     9        0.000000       -0.008626         1
        50        52        53        64     9      180.000000        0.038862         2
        50        52        53        64     9        0.000000        0.235749         3
        50        52        53        64     9      180.000000        0.020475         4
        50        52        54        65     9        0.000000       -0.008626         1
        50        52        54        65     9      180.000000        0.038862         2
        50        52        54        65     9        0.000000        0.235749         3
        50        52        54        65     9      180.000000        0.020475         4
        50        52        54        66     9        0.000000       -0.008626         1
        50        52        54        66     9      180.000000        0.038862         2
        50        52        54        66     9        0.000000        0.235749         3
        50        52        54        66     9      180.000000        0.020475         4
        50        52        54        67     9        0.000000       -0.008626         1
        50        52        54        67     9      180.000000        0.038862         2
        50        52        54        67     9        0.000000        0.235749         3
        50        52        54        67     9      180.000000        0.020475         4
        51        50        18        57     9        0.000000        1.593583         1
        51        50        18        57     9      180.000000        0.703025         2
        51        50        18        57     9        0.000000        0.717740         3
        51        50        18        57     9      180.000000       -0.500486         4
        51        50        52        53     9        0.000000       -0.375518         1
        51        50        52        53     9      180.000000       13.044421         2
        51        50        52        53     9        0.000000       -1.547115         3
        51        50        52        53     9      180.000000       -0.087257         4
        51        50        52        54     9        0.000000       -0.375518         1
        51        50        52        54     9      180.000000       13.044421         2
        51        50        52        54     9        0.000000       -1.547115         3
        51        50        52        54     9      180.000000       -0.087257         4
        52        50        18        57     9        0.000000       -0.215324         1
        52        50        18        57     9      180.000000        0.004504         2
        52        50        18        57     9        0.000000       -0.151551         3
        52        50        18        57     9      180.000000       -0.047823         4
        53        52        54        65     9        0.000000       -0.024574         1
        53        52        54        65     9      180.000000        0.053683         2
        53        52        54        65     9        0.000000        1.208154         3
        53        52        54        65     9      180.000000        0.010416         4
        53        52        54        66     9        0.000000       -0.024574         1
        53        52        54        66     9      180.000000        0.053683         2
        53        52        54        66     9        0.000000        1.208154         3
        53        52        54        66     9      180.000000        0.010416         4
        53        52        54        67     9        0.000000       -0.024574         1
        53        52        54        67     9      180.000000        0.053683         2
        53        52        54        67     9        0.000000        1.208154         3
        53        52        54        67     9      180.000000        0.010416         4
        54        52        53        62     9        0.000000       -0.024574         1
        54        52        53        62     9      180.000000        0.053683         2
        54        52        53        62     9        0.000000        1.208154         3
        54        52        53        62     9      180.000000        0.010416         4
        54        52        53        63     9        0.000000       -0.024574         1
        54        52        53        63     9      180.000000        0.053683         2
        54        52        53        63     9        0.000000        1.208154         3
        54        52        53        63     9      180.000000        0.010416         4
        54        52        53        64     9        0.000000       -0.024574         1
        54        52        53        64     9      180.000000        0.053683         2
        54        52        53        64     9        0.000000        1.208154         3
        54        52        53        64     9      180.000000        0.010416         4
        55        17        16        68     9        0.000000        0.032620         1
        55        17        16        68     9      180.000000        0.014450         2
        55        17        16        68     9        0.000000        0.397221         3
        55        17        16        68     9      180.000000        0.013351         4
        55        17        18        57     9        0.000000        0.092902         1
        55        17        18        57     9      180.000000        0.093401         2
        55        17        18        57     9        0.000000        0.416253         3
        55        17        18        57     9      180.000000       -0.035407         4
        56        17        16        68     9        0.000000        0.032620         1
        56        17        16        68     9      180.000000        0.014450         2
        56        17        16        68     9        0.000000        0.397221         3
        56        17        16        68     9      180.000000        0.013351         4
        56        17        18        57     9        0.000000        0.092902         1
        56        17        18        57     9      180.000000        0.093401         2
        56        17        18        57     9        0.000000        0.416253         3
        56        17        18        57     9      180.000000       -0.035407         4
        57        18        19        58     9        0.000000        0.089169         1
        57        18        19        58     9      180.000000        0.058938         2
        57        18        19        58     9        0.000000        0.395713         3
        57        18        19        58     9      180.000000       -0.024133         4
        57        18        19        59     9        0.000000        0.089169         1
        57        18        19        59     9      180.000000        0.058938         2
        57        18        19        59     9        0.000000        0.395713         3
        57        18        19        59     9      180.000000       -0.024133         4
        58        19        20        60     9        0.000000        0.013546         1
        58        19        20        60     9      180.000000        0.010717         2
        58        19        20        60     9        0.000000        0.296412         3
        58        19        20        60     9      180.000000        0.043706         4
        58        19        20        61     9        0.000000        0.013546         1
        58        19        20        61     9      180.000000        0.010717         2
        58        19        20        61     9        0.000000        0.296412         3
        58        19        20        61     9      180.000000        0.043706         4
        59        19        20        60     9        0.000000        0.013546         1
        59        19        20        60     9      180.000000        0.010717         2
        59        19        20        60     9        0.000000        0.296412         3
        59        19        20        60     9      180.000000        0.043706         4
        59        19        20        61     9        0.000000        0.013546         1
        59        19        20        61     9      180.000000        0.010717         2
        59        19        20        61     9        0.000000        0.296412         3
        59        19        20        61     9      180.000000        0.043706         4

[ dihedrals ] ; impropers
;       ai        aj        ak        al funct           phase               k        pn
         7         1         6        27     4      180.000000       27.893333         2
         7         6        27         1     4      180.000000       27.893333         2
         7        27         1         6     4      180.000000       27.893333         2
        11         1        10        30     4      180.000000        0.180654         2
        11        10        30         1     4      180.000000        0.180654         2
        11        30         1        10     4      180.000000        0.180654         2
        12         5        13        15     4      180.000000       17.867943         2
        12        13        15         5     4      180.000000       17.867943         2
        12        15         5        13     4      180.000000       17.867943         2
        22        21        23        24     4      180.000000       14.088156         2
        22        23        24        21     4      180.000000       14.088156         2
        22        24        21        23     4      180.000000       14.088156         2
        50        18        51        52     4      180.000000       15.867168         2
        50        51        52        18     4      180.000000       15.867168         2
        50        52        18        51     4      180.000000       15.867168         2

[ pairs ]
;       ai        aj funct
         1         2     1
         1         5     1
         1         9     1
         1        28     1
         1        69     1
         1        70     1
         2         8     1
         2        29     1
         2        30     1
         3         6     1
         3        10     1
         3        12     1
         3        27     1
         3        29     1
         3        30     1
         4         7     1
         4         9     1
         4        11     1
         4        13     1
         4        15     1
         4        28     1
         4        70     1
         5         8     1
         5        14     1
         5        27     1
         5        31     1
         6        11     1
         6        13     1
         6        15     1
         6        69     1
         7         8     1
         7        10     1
         7        12     1
         7        30     1
         8        11     1
         8        69     1
         9        30     1
        10        28     1
        11        27     1
        11        29     1
        12        16     1
        12        20     1
        12        32     1
        12        69     1
        12        70     1
        13        17     1
        13        19     1
        13        21     1
        13        60     1
        13        61     1
        13        68     1
        14        15     1
        14        18     1
        14        22     1
        14        33     1
        14        55     1
        14        56     1
        14        58     1
        14        59     1
        15        31     1
        16        19     1
        16        23     1
        16        24     1
        16        31     1
        16        50     1
        16        57     1
        16        60     1
        16        61     1
        17        20     1
        17        22     1
        17        32     1
        17        33     1
        17        51     1
        17        52     1
        17        58     1
        17        59     1
        18        21     1
        18        53     1
        18        54     1
        18        60     1
        18        61     1
        18        68     1
        19        32     1
        19        51     1
        19        52     1
        19        55     1
        19        56     1
        20        21     1
        20        31     1
        20        50     1
        20        57     1
        20        68     1
        21        25     1
        21        26     1
        21        32     1
        21        55     1
        21        56     1
        22        34     1
        22        35     1
        22        68     1
        23        33     1
        23        36     1
        23        39     1
        24        25     1
        24        26     1
        24        33     1
        25        36     1
        25        38     1
        25        45     1
        25        46     1
        26        37     1
        26        39     1
        26        41     1
        26        42     1
        27        70     1
        28        29     1
        31        32     1
        32        60     1
        32        61     1
        32        68     1
        33        68     1
        34        37     1
        34        41     1
        34        42     1
        34        43     1
        34        44     1
        35        38     1
        35        40     1
        35        45     1
        35        46     1
        36        39     1
        36        43     1
        36        44     1
        36        47     1
        36        48     1
        36        49     1
        37        45     1
        37        46     1
        38        41     1
        38        42     1
        38        47     1
        38        48     1
        38        49     1
        39        40     1
        40        41     1
        40        42     1
        40        43     1
        40        44     1
        43        45     1
        43        46     1
        44        45     1
        44        46     1
        50        55     1
        50        56     1
        50        58     1
        50        59     1
        50        62     1
        50        63     1
        50        64     1
        50        65     1
        50        66     1
        50        67     1
        51        53     1
        51        54     1
        51        57     1
        52        57     1
        53        65     1
        53        66     1
        53        67     1
        54        62     1
        54        63     1
        54        64     1
        55        57     1
        55        68     1
        56        57     1
        56        68     1
        57        58     1
        57        59     1
        58        60     1
        58        61     1
        59        60     1
        59        61     1
