; ITP file created by ByteFF-ML, 2025-12-06 08:04:11.740186

[ atomtypes ]
;name           bonded.type        at.num        mass        charge   ptype           sigma         epsilon
 c0bf                                   6      0.0000       0.00000       A     3.31487e-01     4.11232e-01
 cl1bf                                 17      0.0000       0.00000       A     3.46656e-01     1.10365e+00
 c2bf                                   6      0.0000       0.00000       A     3.31481e-01     4.12930e-01
 c3bf                                   6      0.0000       0.00000       A     3.31577e-01     4.09304e-01
 c4bf                                   6      0.0000       0.00000       A     3.31131e-01     4.13982e-01
 c5bf                                   6      0.0000       0.00000       A     3.31531e-01     4.15361e-01
 n6bf                                   7      0.0000       0.00000       A     3.26798e-01     4.92245e-01
 c7bf                                   6      0.0000       0.00000       A     3.31454e-01     4.12911e-01
 c8bf                                   6      0.0000       0.00000       A     3.31499e-01     4.12293e-01
 c9bf                                   6      0.0000       0.00000       A     3.31472e-01     4.12247e-01
 c10bf                                  6      0.0000       0.00000       A     3.31516e-01     4.12970e-01
 c11bf                                  6      0.0000       0.00000       A     3.31165e-01     4.13625e-01
 n12bf                                  7      0.0000       0.00000       A     3.26605e-01     4.87368e-01
 c13bf                                  6      0.0000       0.00000       A     3.39834e-01     4.47883e-01
 o14bf                                  8      0.0000       0.00000       A     3.04425e-01     6.09924e-01
 c15bf                                  6      0.0000       0.00000       A     3.39970e-01     4.49282e-01
 c16bf                                  6      0.0000       0.00000       A     3.39695e-01     4.50020e-01
 c17bf                                  6      0.0000       0.00000       A     3.39807e-01     4.51065e-01
 c18bf                                  6      0.0000       0.00000       A     3.39783e-01     4.50599e-01
 c19bf                                  6      0.0000       0.00000       A     3.39773e-01     4.51249e-01
 n20bf                                  7      0.0000       0.00000       A     3.26602e-01     4.88281e-01
 c21bf                                  6      0.0000       0.00000       A     3.31258e-01     4.13621e-01
 c22bf                                  6      0.0000       0.00000       A     3.31371e-01     4.12927e-01
 o23bf                                  8      0.0000       0.00000       A     3.04582e-01     6.10219e-01
 n24bf                                  7      0.0000       0.00000       A     3.38377e-01     3.93517e-01
 s25bf                                 16      0.0000       0.00000       A     3.53468e-01     1.17897e+00
 h26bf                                  1      0.0000       0.00000       A     2.62534e-01     6.68976e-02
 h27bf                                  1      0.0000       0.00000       A     2.62516e-01     6.70094e-02
 h28bf                                  1      0.0000       0.00000       A     2.62534e-01     6.73797e-02
 h29bf                                  1      0.0000       0.00000       A     2.62349e-01     6.68817e-02
 h30bf                                  1      0.0000       0.00000       A     1.10580e-01     4.10525e-02
 h31bf                                  1      0.0000       0.00000       A     2.42179e-01     8.63601e-02
 h32bf                                  1      0.0000       0.00000       A     1.10612e-01     4.02241e-02
 c33bf                                  6      0.0000       0.00000       A     3.31347e-01     4.13267e-01
 c34bf                                  6      0.0000       0.00000       A     3.31421e-01     4.13824e-01
 c35bf                                  6      0.0000       0.00000       A     3.39969e-01     4.50893e-01
 n36bf                                  7      0.0000       0.00000       A     3.36930e-01     3.57427e-01
 c37bf                                  6      0.0000       0.00000       A     3.39827e-01     4.51767e-01
 c38bf                                  6      0.0000       0.00000       A     3.39882e-01     4.51317e-01
 c39bf                                  6      0.0000       0.00000       A     3.39758e-01     4.50040e-01
 h40bf                                  1      0.0000       0.00000       A     2.42170e-01     8.71342e-02
 h41bf                                  1      0.0000       0.00000       A     2.42170e-01     8.71342e-02
 h42bf                                  1      0.0000       0.00000       A     2.42257e-01     8.79530e-02
 h43bf                                  1      0.0000       0.00000       A     2.42257e-01     8.79530e-02
 h44bf                                  1      0.0000       0.00000       A     2.59883e-01     8.84270e-02
 h45bf                                  1      0.0000       0.00000       A     2.59883e-01     8.84270e-02
 h46bf                                  1      0.0000       0.00000       A     2.41989e-01     8.72555e-02
 h47bf                                  1      0.0000       0.00000       A     2.41989e-01     8.72555e-02
 h48bf                                  1      0.0000       0.00000       A     2.41989e-01     8.72555e-02
 c49bf                                  6      0.0000       0.00000       A     3.31656e-01     4.11194e-01
 o50bf                                  8      0.0000       0.00000       A     3.04848e-01     6.12895e-01
 n51bf                                  7      0.0000       0.00000       A     3.18436e-01     6.83644e-01
 c52bf                                  6      0.0000       0.00000       A     3.39787e-01     4.50128e-01
 c53bf                                  6      0.0000       0.00000       A     3.39787e-01     4.50128e-01
 h54bf                                  1      0.0000       0.00000       A     2.59758e-01     8.65469e-02
 h55bf                                  1      0.0000       0.00000       A     2.59758e-01     8.65469e-02
 h56bf                                  1      0.0000       0.00000       A     2.59710e-01     8.69571e-02
 h57bf                                  1      0.0000       0.00000       A     2.59950e-01     8.71566e-02
 h58bf                                  1      0.0000       0.00000       A     2.59950e-01     8.71566e-02
 h59bf                                  1      0.0000       0.00000       A     2.59873e-01     8.66777e-02
 h60bf                                  1      0.0000       0.00000       A     2.59873e-01     8.66777e-02
 h61bf                                  1      0.0000       0.00000       A     2.42033e-01     8.76162e-02
 h62bf                                  1      0.0000       0.00000       A     2.42033e-01     8.76162e-02
 h63bf                                  1      0.0000       0.00000       A     2.42033e-01     8.76162e-02
 h64bf                                  1      0.0000       0.00000       A     2.42033e-01     8.76162e-02
 h65bf                                  1      0.0000       0.00000       A     2.42033e-01     8.76162e-02
 h66bf                                  1      0.0000       0.00000       A     2.42033e-01     8.76162e-02
 h67bf                                  1      0.0000       0.00000       A     2.42061e-01     8.64671e-02
 o68bf                                  8      0.0000       0.00000       A     3.04739e-01     6.11943e-01
 h69bf                                  1      0.0000       0.00000       A     1.10634e-01     4.06024e-02

[ moleculetype ]
;name             nrexcl
 5i                    3

[ atoms ]
;       nr            type      resi   res      atom      cgnr      charge          mass ; qtot
         1            c0bf         1   UNL        c0         1     0.13357       12.0110 ; qtot    0.134
         2           cl1bf         1   UNL       cl1         2    -0.19525       35.4530 ; qtot   -0.062
         3            c2bf         1   UNL        c2         3    -0.15156       12.0110 ; qtot   -0.213
         4            c3bf         1   UNL        c3         4    -0.00790       12.0110 ; qtot   -0.221
         5            c4bf         1   UNL        c4         5    -0.27449       12.0110 ; qtot   -0.496
         6            c5bf         1   UNL        c5         6     0.58113       12.0110 ; qtot    0.086
         7            n6bf         1   UNL        n6         7    -0.36479       14.0070 ; qtot   -0.279
         8            c7bf         1   UNL        c7         8    -0.02941       12.0110 ; qtot   -0.309
         9            c8bf         1   UNL        c8         9    -0.13761       12.0110 ; qtot   -0.446
        10            c9bf         1   UNL        c9        10     0.16998       12.0110 ; qtot   -0.276
        11           c10bf         1   UNL       c10        11    -0.16317       12.0110 ; qtot   -0.440
        12           c11bf         1   UNL       c11        12     0.62629       12.0110 ; qtot    0.187
        13           n12bf         1   UNL       n12        13    -0.48727       14.0070 ; qtot   -0.300
        14           c13bf         1   UNL       c13        14     0.09744       12.0110 ; qtot   -0.203
        15           o14bf         1   UNL       o14        15    -0.62437       15.9990 ; qtot   -0.827
        16           c15bf         1   UNL       c15        16     0.09822       12.0110 ; qtot   -0.729
        17           c16bf         1   UNL       c16        17    -0.07593       12.0110 ; qtot   -0.805
        18           c17bf         1   UNL       c17        18    -0.13491       12.0110 ; qtot   -0.940
        19           c18bf         1   UNL       c18        19    -0.06728       12.0110 ; qtot   -1.007
        20           c19bf         1   UNL       c19        20    -0.08796       12.0110 ; qtot   -1.095
        21           n20bf         1   UNL       n20        21    -0.49001       14.0070 ; qtot   -1.585
        22           c21bf         1   UNL       c21        22     0.53549       12.0110 ; qtot   -1.050
        23           c22bf         1   UNL       c22        23     0.38153       12.0110 ; qtot   -0.668
        24           o23bf         1   UNL       o23        24    -0.58023       15.9990 ; qtot   -1.248
        25           n24bf         1   UNL       n24        25    -0.61219       14.0070 ; qtot   -1.861
        26           s25bf         1   UNL       s25        26     0.02030       32.0670 ; qtot   -1.840
        27           h26bf         1   UNL       h26        27     0.21718        1.0080 ; qtot   -1.623
        28           h27bf         1   UNL       h27        28     0.12863        1.0080 ; qtot   -1.495
        29           h28bf         1   UNL       h28        29     0.13864        1.0080 ; qtot   -1.356
        30           h29bf         1   UNL       h29        30     0.13672        1.0080 ; qtot   -1.219
        31           h30bf         1   UNL       h30        31     0.34873        1.0080 ; qtot   -0.870
        32           h31bf         1   UNL       h31        32     0.07679        1.0080 ; qtot   -0.794
        33           h32bf         1   UNL       h32        33     0.34007        1.0080 ; qtot   -0.454
        34           c33bf         1   UNL       c33        34     0.28744       12.0110 ; qtot   -0.166
        35           c34bf         1   UNL       c34        35    -0.23576       12.0110 ; qtot   -0.402
        36           c35bf         1   UNL       c35        36     0.24225       12.0110 ; qtot   -0.160
        37           n36bf         1   UNL       n36        37    -0.71279       14.0070 ; qtot   -0.872
        38           c37bf         1   UNL       c37        38     0.15975       12.0110 ; qtot   -0.713
        39           c38bf         1   UNL       c38        39    -0.11333       12.0110 ; qtot   -0.826
        40           c39bf         1   UNL       c39        40     0.14641       12.0110 ; qtot   -0.680
        41           h40bf         1   UNL       h40        41     0.05577        1.0080 ; qtot   -0.624
        42           h41bf         1   UNL       h41        42     0.05577        1.0080 ; qtot   -0.568
        43           h42bf         1   UNL       h42        43     0.04433        1.0080 ; qtot   -0.524
        44           h43bf         1   UNL       h43        44     0.04433        1.0080 ; qtot   -0.479
        45           h44bf         1   UNL       h44        45     0.06561        1.0080 ; qtot   -0.414
        46           h45bf         1   UNL       h45        46     0.06561        1.0080 ; qtot   -0.348
        47           h46bf         1   UNL       h46        47     0.03413        1.0080 ; qtot   -0.314
        48           h47bf         1   UNL       h47        48     0.03413        1.0080 ; qtot   -0.280
        49           h48bf         1   UNL       h48        49     0.03413        1.0080 ; qtot   -0.246
        50           c49bf         1   UNL       c49        50     0.60518       12.0110 ; qtot    0.359
        51           o50bf         1   UNL       o50        51    -0.60574       15.9990 ; qtot   -0.246
        52           n51bf         1   UNL       n51        52    -0.42066       14.0070 ; qtot   -0.667
        53           c52bf         1   UNL       c52        53     0.08301       12.0110 ; qtot   -0.584
        54           c53bf         1   UNL       c53        54     0.08301       12.0110 ; qtot   -0.501
        55           h54bf         1   UNL       h54        55     0.06130        1.0080 ; qtot   -0.440
        56           h55bf         1   UNL       h55        56     0.06130        1.0080 ; qtot   -0.378
        57           h56bf         1   UNL       h56        57     0.06316        1.0080 ; qtot   -0.315
        58           h57bf         1   UNL       h57        58     0.05027        1.0080 ; qtot   -0.265
        59           h58bf         1   UNL       h58        59     0.05027        1.0080 ; qtot   -0.215
        60           h59bf         1   UNL       h59        60     0.05517        1.0080 ; qtot   -0.160
        61           h60bf         1   UNL       h60        61     0.05517        1.0080 ; qtot   -0.104
        62           h61bf         1   UNL       h61        62     0.04477        1.0080 ; qtot   -0.060
        63           h62bf         1   UNL       h62        63     0.04477        1.0080 ; qtot   -0.015
        64           h63bf         1   UNL       h63        64     0.04477        1.0080 ; qtot    0.030
        65           h64bf         1   UNL       h64        65     0.04477        1.0080 ; qtot    0.075
        66           h65bf         1   UNL       h65        66     0.04477        1.0080 ; qtot    0.119
        67           h66bf         1   UNL       h66        67     0.04477        1.0080 ; qtot    0.164
        68           h67bf         1   UNL       h67        68     0.07796        1.0080 ; qtot    0.242
        69           o68bf         1   UNL       o68        69    -0.57350       15.9990 ; qtot   -0.331
        70           h69bf         1   UNL       h69        70     0.33132        1.0080 ; qtot   -0.000

[ bonds ]
;       ai        aj funct               r               k
         1         3     1        0.141708   264550.995068
         1         7     1        0.137894   292581.956396
         1        11     1        0.140549   286319.848584
         2        10     1        0.175321   152141.632104
         3         4     1        0.143078   263354.070752
         3         8     1        0.141040   289143.537842
         4         5     1        0.136666   391332.911328
         4        27     1        0.108671   318240.264893
         5         6     1        0.146645   188950.706641
         5        12     1        0.151145   157990.613330
         6         7     1        0.139148   226948.852832
         6        69     1        0.124196   552061.128320
         7        70     1        0.101443   412290.246582
         8         9     1        0.138581   337865.431299
         8        28     1        0.108603   320418.146191
         9        10     1        0.140709   282402.660303
         9        29     1        0.108419   326671.188330
        10        11     1        0.138910   319199.975000
        11        30     1        0.108504   322120.654199
        12        13     1        0.135470   324866.378662
        12        15     1        0.123828   567298.355371
        13        14     1        0.146266   191699.150806
        13        31     1        0.101791   398771.003027
        14        16     1        0.154744   156899.144507
        14        20     1        0.153874   173183.444116
        14        32     1        0.109299   301709.557715
        16        17     1        0.153890   171755.268506
        16        21     1        0.146250   191046.869189
        16        68     1        0.109290   301765.586133
        17        18     1        0.154579   164893.255688
        17        55     1        0.109326   300596.548340
        17        56     1        0.109326   300596.548340
        18        19     1        0.154661   163666.440186
        18        50     1        0.153191   158389.847729
        18        57     1        0.109414   302100.760693
        19        20     1        0.153693   181138.049390
        19        58     1        0.109447   297470.142188
        19        59     1        0.109447   297470.142188
        20        60     1        0.109408   298814.185791
        20        61     1        0.109408   298814.185791
        21        22     1        0.136095   315450.182471
        21        33     1        0.101409   412617.504639
        22        23     1        0.149761   181928.244165
        22        24     1        0.123205   595504.348047
        23        25     1        0.130744   394780.497705
        23        26     1        0.175753   114860.619019
        25        34     1        0.137483   250388.573877
        26        35     1        0.173418   163411.796899
        34        35     1        0.137232   358668.241504
        34        39     1        0.150284   209899.921094
        35        36     1        0.150545   205958.217187
        36        37     1        0.146468   191918.016602
        36        41     1        0.110015   279945.249805
        36        42     1        0.110015   279945.249805
        37        38     1        0.146781   189560.941406
        37        40     1        0.146077   206296.839258
        38        39     1        0.153813   178870.826514
        38        43     1        0.109814   285833.034668
        38        44     1        0.109814   285833.034668
        39        45     1        0.109539   296322.146973
        39        46     1        0.109539   296322.146973
        40        47     1        0.109765   288786.094922
        40        48     1        0.109765   288786.094922
        40        49     1        0.109765   288786.094922
        50        51     1        0.123512   586720.399609
        50        52     1        0.137606   276714.984229
        52        53     1        0.145947   208517.482446
        52        54     1        0.145947   208517.482446
        53        62     1        0.109324   300806.693213
        53        63     1        0.109324   300806.693213
        53        64     1        0.109324   300806.693213
        54        65     1        0.109324   300806.693213
        54        66     1        0.109324   300806.693213
        54        67     1        0.109324   300806.693213

[ angles ]
;       ai        aj        ak funct           theta             cth
         1         3         4     1      117.991615      730.455560
         1         3         8     1      118.659973      743.991186
         1         7         6     1      126.365738      488.492119
         1         7        70     1      119.573341      437.577858
         1        11        10     1      118.906204      709.064975
         1        11        30     1      120.661926      432.777456
         2        10         9     1      119.072281      395.422986
         2        10        11     1      119.060814      338.092048
         3         1         7     1      118.206078      687.961746
         3         1        11     1      120.461693      633.799261
         3         4         5     1      122.954063      535.563172
         3         4        27     1      119.534241      408.539484
         3         8         9     1      121.179550      609.409151
         3         8        28     1      119.050453      428.677474
         4         3         8     1      123.217873      410.434912
         4         5         6     1      119.773582      812.287503
         4         5        12     1      117.097031      500.089318
         5         4        27     1      117.321938      404.038951
         5         6         7     1      114.893509      768.499724
         5         6        69     1      126.646255      532.822498
         5        12        13     1      116.160789      522.015353
         5        12        15     1      120.104774      621.650747
         6         5        12     1      123.152260      743.275572
         6         7        70     1      113.678444      568.421835
         7         1        11     1      121.026566      486.409217
         7         6        69     1      118.521240      764.042349
         8         9        10     1      118.801903      628.299078
         8         9        29     1      121.297928      427.409492
         9         8        28     1      119.578018      437.536903
         9        10        11     1      121.841881      605.368797
        10         9        29     1      119.983109      439.635703
        10        11        30     1      120.434952      433.637227
        12        13        14     1      122.620216      521.034664
        12        13        31     1      117.109238      464.631010
        13        12        15     1      123.625793      608.841589
        13        14        16     1      111.149460      547.984742
        13        14        20     1      111.657326      629.095836
        13        14        32     1      106.430496      525.043543
        14        13        31     1      118.682411      370.159730
        14        16        17     1      110.936119      562.812354
        14        16        21     1      111.225784      547.852140
        14        16        68     1      107.765198      470.820535
        14        20        19     1      111.594437      623.557093
        14        20        60     1      108.989258      497.304624
        14        20        61     1      108.989258      497.304624
        16        14        20     1      110.850082      555.805354
        16        14        32     1      107.680099      473.262585
        16        17        18     1      111.939430      596.757301
        16        17        55     1      109.082336      493.142969
        16        17        56     1      109.082336      493.142969
        16        21        22     1      123.281532      523.533821
        16        21        33     1      117.985329      388.342599
        17        16        21     1      111.416893      612.846063
        17        16        68     1      108.673912      471.627763
        17        18        19     1      110.560959      569.917990
        17        18        50     1      110.802452      642.130488
        17        18        57     1      107.640671      495.211858
        18        17        55     1      109.789185      465.155383
        18        17        56     1      109.789185      465.155383
        18        19        20     1      111.603378      627.166571
        18        19        58     1      109.459435      468.787845
        18        19        59     1      109.459435      468.787845
        18        50        51     1      120.367775      453.866799
        18        50        52     1      118.348633      449.080890
        19        18        50     1      111.026161      653.509377
        19        18        57     1      107.798851      493.236244
        19        20        60     1      109.998474      502.411408
        19        20        61     1      109.998474      502.411408
        20        14        32     1      108.807823      472.036804
        20        19        58     1      109.708351      513.116564
        20        19        59     1      109.708351      513.116564
        21        16        68     1      106.369919      527.599138
        21        22        23     1      114.245560      430.111414
        21        22        24     1      124.890869      615.174089
        22        21        33     1      117.270615      420.964947
        22        23        25     1      124.340652      359.309363
        22        23        26     1      120.844772      468.365589
        23        22        24     1      120.964073      537.680773
        23        25        34     1      111.406593      328.705787
        23        26        35     1       88.551132      167.360000
        25        23        26     1      114.891418      167.360000
        25        34        35     1      115.272217      312.892188
        25        34        39     1      122.848999      461.667684
        26        35        34     1      110.263878      167.360000
        26        35        36     1      125.788002      401.332369
        34        35        36     1      123.996292      562.620314
        34        39        38     1      109.429955      644.587349
        34        39        45     1      109.759384      484.571854
        34        39        46     1      109.759384      484.571854
        35        34        39     1      121.676254      406.530862
        35        36        37     1      110.200546      563.933816
        35        36        41     1      110.205734      462.983196
        35        36        42     1      110.205734      462.983196
        36        37        38     1      111.045578      613.756014
        36        37        40     1      111.203835      630.245325
        37        36        41     1      109.551048      459.134690
        37        36        42     1      109.551048      459.134690
        37        38        39     1      112.270889      625.644432
        37        38        43     1      109.041969      476.770682
        37        38        44     1      109.041969      476.770682
        37        40        47     1      110.858498      481.423224
        37        40        48     1      110.858498      481.423224
        37        40        49     1      110.858498      481.423224
        38        37        40     1      112.192528      649.121399
        38        39        45     1      110.261795      502.853519
        38        39        46     1      110.261795      502.853519
        39        38        43     1      109.631447      493.664916
        39        38        44     1      109.631447      493.664916
        41        36        42     1      106.585083      354.341693
        43        38        44     1      107.114723      348.812845
        45        39        46     1      106.901878      363.316136
        47        40        48     1      108.062943      347.504005
        47        40        49     1      108.062943      347.504005
        48        40        49     1      108.062943      347.504005
        50        18        57     1      108.212730      515.178845
        50        52        53     1      122.129654      505.902714
        50        52        54     1      122.129654      505.902714
        51        50        52     1      121.081711      636.267423
        52        53        62     1      110.326584      477.859265
        52        53        63     1      110.326584      477.859265
        52        53        64     1      110.326584      477.859265
        52        54        65     1      110.326584      477.859265
        52        54        66     1      110.326584      477.859265
        52        54        67     1      110.326584      477.859265
        53        52        54     1      114.947632      573.331217
        55        17        56     1      107.084274      355.159487
        58        19        59     1      106.645180      359.821255
        60        20        61     1      106.839844      356.387024
        62        53        63     1      108.724709      349.793087
        62        53        64     1      108.724709      349.793087
        63        53        64     1      108.724709      349.793087
        65        54        66     1      108.724709      349.793087
        65        54        67     1      108.724709      349.793087
        66        54        67     1      108.724709      349.793087

[ dihedrals ] ; propers for gromacs 4.5 or higher, use funct 9
;       ai        aj        ak        al funct           phase               k        pn
         1         3         4         5     9        0.000000       -0.067751         1
         1         3         4         5     9      180.000000       11.344679         2
         1         3         4         5     9        0.000000       -1.315660         3
         1         3         4         5     9      180.000000       -0.233819         4
         1         3         4        27     9        0.000000        0.481248         1
         1         3         4        27     9      180.000000        9.549424         2
         1         3         4        27     9        0.000000       -0.192790         3
         1         3         4        27     9      180.000000        0.018425         4
         1         3         8         9     9        0.000000       -0.114738         1
         1         3         8         9     9      180.000000       17.576127         2
         1         3         8         9     9        0.000000       -1.245594         3
         1         3         8         9     9      180.000000       -0.427581         4
         1         3         8        28     9        0.000000        0.000566         1
         1         3         8        28     9      180.000000       12.740884         2
         1         3         8        28     9        0.000000       -0.412837         3
         1         3         8        28     9      180.000000       -0.041501         4
         1         7         6         5     9        0.000000        0.922018         1
         1         7         6         5     9      180.000000        2.950240         2
         1         7         6         5     9        0.000000        0.066951         3
         1         7         6         5     9      180.000000        0.431222         4
         1         7         6        69     9        0.000000        0.416907         1
         1         7         6        69     9      180.000000       10.403075         2
         1         7         6        69     9        0.000000       -0.197925         3
         1         7         6        69     9      180.000000       -0.385032         4
         1        11        10         2     9        0.000000        0.411159         1
         1        11        10         2     9      180.000000       19.257077         2
         1        11        10         2     9        0.000000        0.444342         3
         1        11        10         2     9      180.000000       -0.712945         4
         1        11        10         9     9        0.000000       -0.016349         1
         1        11        10         9     9      180.000000       17.860680         2
         1        11        10         9     9        0.000000       -1.393332         3
         1        11        10         9     9      180.000000       -0.448460         4
         2        10         9         8     9        0.000000        0.379145         1
         2        10         9         8     9      180.000000       17.363419         2
         2        10         9         8     9        0.000000        0.275190         3
         2        10         9         8     9      180.000000       -0.470996         4
         2        10         9        29     9        0.000000        0.160440         1
         2        10         9        29     9      180.000000       12.779107         2
         2        10         9        29     9        0.000000       -0.127558         3
         2        10         9        29     9      180.000000        0.242628         4
         2        10        11        30     9        0.000000        0.132037         1
         2        10        11        30     9      180.000000       14.044360         2
         2        10        11        30     9        0.000000       -0.078833         3
         2        10        11        30     9      180.000000        0.263468         4
         3         1         7         6     9        0.000000        0.131263         1
         3         1         7         6     9      180.000000        4.371115         2
         3         1         7         6     9        0.000000       -0.008241         3
         3         1         7         6     9      180.000000        0.216549         4
         3         1         7        70     9        0.000000       -0.764576         1
         3         1         7        70     9      180.000000        4.635485         2
         3         1         7        70     9        0.000000        0.278156         3
         3         1         7        70     9      180.000000        0.135270         4
         3         1        11        10     9        0.000000       -0.069936         1
         3         1        11        10     9      180.000000       16.371080         2
         3         1        11        10     9        0.000000       -0.717238         3
         3         1        11        10     9      180.000000       -0.264785         4
         3         1        11        30     9        0.000000        0.031838         1
         3         1        11        30     9      180.000000       12.357090         2
         3         1        11        30     9        0.000000       -0.269881         3
         3         1        11        30     9      180.000000        0.082663         4
         3         4         5         6     9        0.000000        0.082008         1
         3         4         5         6     9      180.000000       21.960817         2
         3         4         5         6     9        0.000000       -0.843207         3
         3         4         5         6     9      180.000000       -1.107001         4
         3         4         5        12     9        0.000000        0.590033         1
         3         4         5        12     9      180.000000       21.587652         2
         3         4         5        12     9        0.000000        0.285338         3
         3         4         5        12     9      180.000000       -1.359583         4
         3         8         9        10     9        0.000000       -0.132943         1
         3         8         9        10     9      180.000000       20.247157         2
         3         8         9        10     9        0.000000       -1.593076         3
         3         8         9        10     9      180.000000       -0.490948         4
         3         8         9        29     9        0.000000       -0.046598         1
         3         8         9        29     9      180.000000       16.021797         2
         3         8         9        29     9        0.000000       -0.581195         3
         3         8         9        29     9      180.000000       -0.047991         4
         4         3         1         7     9        0.000000        0.320655         1
         4         3         1         7     9      180.000000       16.275837         2
         4         3         1         7     9        0.000000       -0.206436         3
         4         3         1         7     9      180.000000       -0.531595         4
         4         3         1        11     9        0.000000        0.297438         1
         4         3         1        11     9      180.000000       12.921585         2
         4         3         1        11     9        0.000000       -0.559228         3
         4         3         1        11     9      180.000000       -0.165064         4
         4         3         8         9     9        0.000000        0.054895         1
         4         3         8         9     9      180.000000       15.558016         2
         4         3         8         9     9        0.000000       -0.816070         3
         4         3         8         9     9      180.000000       -0.219973         4
         4         3         8        28     9        0.000000       -0.047211         1
         4         3         8        28     9      180.000000       11.760703         2
         4         3         8        28     9        0.000000       -0.478835         3
         4         3         8        28     9      180.000000        0.010526         4
         4         5         6         7     9        0.000000        0.351465         1
         4         5         6         7     9      180.000000        2.443213         2
         4         5         6         7     9        0.000000        0.003375         3
         4         5         6         7     9      180.000000        0.010455         4
         4         5         6        69     9        0.000000        1.651747         1
         4         5         6        69     9      180.000000        4.619300         2
         4         5         6        69     9        0.000000       -0.021201         3
         4         5         6        69     9      180.000000       -0.212124         4
         4         5        12        13     9        0.000000       -0.955703         1
         4         5        12        13     9      180.000000        1.938160         2
         4         5        12        13     9        0.000000        0.019641         3
         4         5        12        13     9      180.000000       -0.249155         4
         4         5        12        15     9        0.000000        3.757964         1
         4         5        12        15     9      180.000000        2.908210         2
         4         5        12        15     9        0.000000       -1.240424         3
         4         5        12        15     9      180.000000        0.486723         4
         5         4         3         8     9        0.000000       -0.597215         1
         5         4         3         8     9      180.000000        8.459130         2
         5         4         3         8     9        0.000000       -0.548795         3
         5         4         3         8     9      180.000000        0.035304         4
         5         6         7        70     9        0.000000        0.152975         1
         5         6         7        70     9      180.000000        7.767056         2
         5         6         7        70     9        0.000000       -0.391815         3
         5         6         7        70     9      180.000000        0.031467         4
         5        12        13        14     9        0.000000        1.960173         1
         5        12        13        14     9      180.000000       11.992408         2
         5        12        13        14     9        0.000000        1.074259         3
         5        12        13        14     9      180.000000       -0.209369         4
         5        12        13        31     9        0.000000       -0.428276         1
         5        12        13        31     9      180.000000        9.376952         2
         5        12        13        31     9        0.000000       -0.006191         3
         5        12        13        31     9      180.000000        0.409264         4
         6         5         4        27     9        0.000000        0.414163         1
         6         5         4        27     9      180.000000       17.040584         2
         6         5         4        27     9        0.000000        0.016752         3
         6         5         4        27     9      180.000000       -0.092592         4
         6         5        12        13     9        0.000000        1.104257         1
         6         5        12        13     9      180.000000        2.388549         2
         6         5        12        13     9        0.000000        0.162611         3
         6         5        12        13     9      180.000000       -0.070455         4
         6         5        12        15     9        0.000000       -4.625999         1
         6         5        12        15     9      180.000000        3.908308         2
         6         5        12        15     9        0.000000        0.754883         3
         6         5        12        15     9      180.000000        0.264496         4
         6         7         1        11     9        0.000000       -0.567432         1
         6         7         1        11     9      180.000000        4.822898         2
         6         7         1        11     9        0.000000        0.000916         3
         6         7         1        11     9      180.000000        0.101613         4
         7         1         3         8     9        0.000000        0.266780         1
         7         1         3         8     9      180.000000       15.222288         2
         7         1         3         8     9        0.000000       -0.258219         3
         7         1         3         8     9      180.000000       -0.341083         4
         7         1        11        10     9        0.000000        0.443071         1
         7         1        11        10     9      180.000000       19.572451         2
         7         1        11        10     9        0.000000        0.029787         3
         7         1        11        10     9      180.000000       -0.614661         4
         7         1        11        30     9        0.000000       -0.124928         1
         7         1        11        30     9      180.000000       14.123203         2
         7         1        11        30     9        0.000000       -0.353662         3
         7         1        11        30     9      180.000000        0.181308         4
         7         6         5        12     9        0.000000        1.481920         1
         7         6         5        12     9      180.000000        5.207935         2
         7         6         5        12     9        0.000000        0.514509         3
         7         6         5        12     9      180.000000        0.042378         4
         8         3         1        11     9        0.000000        0.149693         1
         8         3         1        11     9      180.000000       12.649661         2
         8         3         1        11     9        0.000000       -0.855623         3
         8         3         1        11     9      180.000000       -0.123100         4
         8         3         4        27     9        0.000000       -0.460917         1
         8         3         4        27     9      180.000000        6.669078         2
         8         3         4        27     9        0.000000       -0.144842         3
         8         3         4        27     9      180.000000        0.191721         4
         8         9        10        11     9        0.000000       -0.133116         1
         8         9        10        11     9      180.000000       16.294521         2
         8         9        10        11     9        0.000000       -1.208357         3
         8         9        10        11     9      180.000000       -0.303432         4
         9        10        11        30     9        0.000000        0.005625         1
         9        10        11        30     9      180.000000       13.918041         2
         9        10        11        30     9        0.000000       -0.540689         3
         9        10        11        30     9      180.000000        0.092469         4
        10         9         8        28     9        0.000000        0.041210         1
        10         9         8        28     9      180.000000       15.400307         2
        10         9         8        28     9        0.000000       -0.508061         3
        10         9         8        28     9      180.000000        0.149331         4
        11         1         7        70     9        0.000000       -0.997701         1
        11         1         7        70     9      180.000000        3.901347         2
        11         1         7        70     9        0.000000       -0.203102         3
        11         1         7        70     9      180.000000        0.159898         4
        11        10         9        29     9        0.000000       -0.022263         1
        11        10         9        29     9      180.000000       12.843192         2
        11        10         9        29     9        0.000000       -0.504819         3
        11        10         9        29     9      180.000000        0.127919         4
        12         5         4        27     9        0.000000        0.506935         1
        12         5         4        27     9      180.000000       16.517543         2
        12         5         4        27     9        0.000000        0.380189         3
        12         5         4        27     9      180.000000       -0.272324         4
        12         5         6        69     9        0.000000       -0.250917         1
        12         5         6        69     9      180.000000        9.612423         2
        12         5         6        69     9        0.000000       -0.113971         3
        12         5         6        69     9      180.000000       -0.634879         4
        12        13        14        16     9        0.000000        1.472130         1
        12        13        14        16     9      180.000000       -0.333100         2
        12        13        14        16     9        0.000000        0.189191         3
        12        13        14        16     9      180.000000        0.221125         4
        12        13        14        20     9        0.000000       -0.196398         1
        12        13        14        20     9      180.000000       -0.046017         2
        12        13        14        20     9        0.000000        0.261899         3
        12        13        14        20     9      180.000000        0.015599         4
        12        13        14        32     9        0.000000       -0.152431         1
        12        13        14        32     9      180.000000        0.149180         2
        12        13        14        32     9        0.000000        0.096263         3
        12        13        14        32     9      180.000000        0.157104         4
        13        14        16        17     9        0.000000       -0.666352         1
        13        14        16        17     9      180.000000       -0.016773         2
        13        14        16        17     9        0.000000        0.055494         3
        13        14        16        17     9      180.000000        0.345629         4
        13        14        16        21     9        0.000000        2.337839         1
        13        14        16        21     9      180.000000       -0.005265         2
        13        14        16        21     9        0.000000       -0.494270         3
        13        14        16        21     9      180.000000        0.169420         4
        13        14        16        68     9        0.000000       -0.392941         1
        13        14        16        68     9      180.000000        0.048376         2
        13        14        16        68     9        0.000000        0.363322         3
        13        14        16        68     9      180.000000       -0.010806         4
        13        14        20        19     9        0.000000       -0.576636         1
        13        14        20        19     9      180.000000        0.610246         2
        13        14        20        19     9        0.000000        0.145153         3
        13        14        20        19     9      180.000000        0.195513         4
        13        14        20        60     9        0.000000        0.070847         1
        13        14        20        60     9      180.000000        0.093354         2
        13        14        20        60     9        0.000000        0.371624         3
        13        14        20        60     9      180.000000       -0.077974         4
        13        14        20        61     9        0.000000        0.070847         1
        13        14        20        61     9      180.000000        0.093354         2
        13        14        20        61     9        0.000000        0.371624         3
        13        14        20        61     9      180.000000       -0.077974         4
        14        13        12        15     9        0.000000       -0.684734         1
        14        13        12        15     9      180.000000       11.888432         2
        14        13        12        15     9        0.000000        0.036517         3
        14        13        12        15     9      180.000000       -1.213766         4
        14        16        17        18     9        0.000000        3.457603         1
        14        16        17        18     9      180.000000       -1.753696         2
        14        16        17        18     9        0.000000       -0.098468         3
        14        16        17        18     9      180.000000        0.004361         4
        14        16        17        55     9        0.000000       -0.092937         1
        14        16        17        55     9      180.000000        0.067401         2
        14        16        17        55     9        0.000000        0.169430         3
        14        16        17        55     9      180.000000        0.048297         4
        14        16        17        56     9        0.000000       -0.092937         1
        14        16        17        56     9      180.000000        0.067401         2
        14        16        17        56     9        0.000000        0.169430         3
        14        16        17        56     9      180.000000        0.048297         4
        14        16        21        22     9        0.000000        1.041308         1
        14        16        21        22     9      180.000000       -0.423149         2
        14        16        21        22     9        0.000000        0.330451         3
        14        16        21        22     9      180.000000        0.174665         4
        14        16        21        33     9        0.000000        0.617191         1
        14        16        21        33     9      180.000000       -1.074880         2
        14        16        21        33     9        0.000000        0.535456         3
        14        16        21        33     9      180.000000        0.022043         4
        14        20        19        18     9        0.000000        1.287113         1
        14        20        19        18     9      180.000000       -1.618282         2
        14        20        19        18     9        0.000000        0.191622         3
        14        20        19        18     9      180.000000        0.077554         4
        14        20        19        58     9        0.000000       -0.092904         1
        14        20        19        58     9      180.000000        0.066912         2
        14        20        19        58     9        0.000000        0.236401         3
        14        20        19        58     9      180.000000        0.021587         4
        14        20        19        59     9        0.000000       -0.092904         1
        14        20        19        59     9      180.000000        0.066912         2
        14        20        19        59     9        0.000000        0.236401         3
        14        20        19        59     9      180.000000        0.021587         4
        15        12        13        31     9        0.000000       -0.142407         1
        15        12        13        31     9      180.000000       11.568642         2
        15        12        13        31     9        0.000000       -0.112361         3
        15        12        13        31     9      180.000000        0.593964         4
        16        14        13        31     9        0.000000        0.266869         1
        16        14        13        31     9      180.000000       -1.322572         2
        16        14        13        31     9        0.000000        0.492321         3
        16        14        13        31     9      180.000000        0.012053         4
        16        14        20        19     9        0.000000        2.710236         1
        16        14        20        19     9      180.000000       -1.635564         2
        16        14        20        19     9        0.000000        0.048934         3
        16        14        20        19     9      180.000000        0.053922         4
        16        14        20        60     9        0.000000       -0.095233         1
        16        14        20        60     9      180.000000        0.059773         2
        16        14        20        60     9        0.000000        0.179173         3
        16        14        20        60     9      180.000000        0.056545         4
        16        14        20        61     9        0.000000       -0.095233         1
        16        14        20        61     9      180.000000        0.059773         2
        16        14        20        61     9        0.000000        0.179173         3
        16        14        20        61     9      180.000000        0.056545         4
        16        17        18        19     9        0.000000        2.167701         1
        16        17        18        19     9      180.000000       -2.095071         2
        16        17        18        19     9        0.000000        0.100990         3
        16        17        18        19     9      180.000000       -0.067359         4
        16        17        18        50     9        0.000000       -0.969890         1
        16        17        18        50     9      180.000000       -0.492010         2
        16        17        18        50     9        0.000000        0.043330         3
        16        17        18        50     9      180.000000        0.044241         4
        16        17        18        57     9        0.000000       -0.731592         1
        16        17        18        57     9      180.000000        0.097424         2
        16        17        18        57     9        0.000000        0.165659         3
        16        17        18        57     9      180.000000        0.052140         4
        16        21        22        23     9        0.000000        1.551351         1
        16        21        22        23     9      180.000000       10.806241         2
        16        21        22        23     9        0.000000        0.659059         3
        16        21        22        23     9      180.000000       -0.282031         4
        16        21        22        24     9        0.000000       -0.687196         1
        16        21        22        24     9      180.000000       10.163927         2
        16        21        22        24     9        0.000000        0.483358         3
        16        21        22        24     9      180.000000       -1.334168         4
        17        16        14        20     9        0.000000        3.377915         1
        17        16        14        20     9      180.000000       -1.644845         2
        17        16        14        20     9        0.000000        0.090639         3
        17        16        14        20     9      180.000000       -0.008978         4
        17        16        14        32     9        0.000000       -0.366024         1
        17        16        14        32     9      180.000000        0.081295         2
        17        16        14        32     9        0.000000        0.302992         3
        17        16        14        32     9      180.000000        0.055566         4
        17        16        21        22     9        0.000000       -0.005175         1
        17        16        21        22     9      180.000000       -0.401672         2
        17        16        21        22     9        0.000000        0.370215         3
        17        16        21        22     9      180.000000        0.053218         4
        17        16        21        33     9        0.000000       -0.136586         1
        17        16        21        33     9      180.000000       -0.353037         2
        17        16        21        33     9        0.000000        0.351756         3
        17        16        21        33     9      180.000000       -0.038850         4
        17        18        19        20     9        0.000000        0.883010         1
        17        18        19        20     9      180.000000       -1.399872         2
        17        18        19        20     9        0.000000        0.314248         3
        17        18        19        20     9      180.000000       -0.050797         4
        17        18        19        58     9        0.000000       -0.056826         1
        17        18        19        58     9      180.000000        0.050149         2
        17        18        19        58     9        0.000000        0.270717         3
        17        18        19        58     9      180.000000        0.019384         4
        17        18        19        59     9        0.000000       -0.056826         1
        17        18        19        59     9      180.000000        0.050149         2
        17        18        19        59     9        0.000000        0.270717         3
        17        18        19        59     9      180.000000        0.019384         4
        17        18        50        51     9        0.000000       -0.455386         1
        17        18        50        51     9      180.000000        0.737900         2
        17        18        50        51     9        0.000000        0.287526         3
        17        18        50        51     9      180.000000        0.250951         4
        17        18        50        52     9        0.000000        0.270994         1
        17        18        50        52     9      180.000000        1.080078         2
        17        18        50        52     9        0.000000       -0.027563         3
        17        18        50        52     9      180.000000        0.001527         4
        18        17        16        21     9        0.000000       -0.378319         1
        18        17        16        21     9      180.000000        0.218820         2
        18        17        16        21     9        0.000000        0.056326         3
        18        17        16        21     9      180.000000        0.226509         4
        18        17        16        68     9        0.000000       -0.669048         1
        18        17        16        68     9      180.000000        0.139249         2
        18        17        16        68     9        0.000000        0.154171         3
        18        17        16        68     9      180.000000        0.076395         4
        18        19        20        60     9        0.000000       -0.080258         1
        18        19        20        60     9      180.000000        0.083233         2
        18        19        20        60     9        0.000000        0.213417         3
        18        19        20        60     9      180.000000        0.012387         4
        18        19        20        61     9        0.000000       -0.080258         1
        18        19        20        61     9      180.000000        0.083233         2
        18        19        20        61     9        0.000000        0.213417         3
        18        19        20        61     9      180.000000        0.012387         4
        18        50        52        53     9        0.000000        7.685850         1
        18        50        52        53     9      180.000000       10.413246         2
        18        50        52        53     9        0.000000        0.340038         3
        18        50        52        53     9      180.000000       -0.442447         4
        18        50        52        54     9        0.000000        7.685850         1
        18        50        52        54     9      180.000000       10.413246         2
        18        50        52        54     9        0.000000        0.340038         3
        18        50        52        54     9      180.000000       -0.442447         4
        19        18        17        55     9        0.000000       -0.052172         1
        19        18        17        55     9      180.000000        0.058083         2
        19        18        17        55     9        0.000000        0.229959         3
        19        18        17        55     9      180.000000        0.057798         4
        19        18        17        56     9        0.000000       -0.052172         1
        19        18        17        56     9      180.000000        0.058083         2
        19        18        17        56     9        0.000000        0.229959         3
        19        18        17        56     9      180.000000        0.057798         4
        19        18        50        51     9        0.000000       -0.698289         1
        19        18        50        51     9      180.000000        0.744054         2
        19        18        50        51     9        0.000000        0.336890         3
        19        18        50        51     9      180.000000        0.225666         4
        19        18        50        52     9        0.000000        0.291846         1
        19        18        50        52     9      180.000000        1.098654         2
        19        18        50        52     9        0.000000        0.042828         3
        19        18        50        52     9      180.000000       -0.012816         4
        19        20        14        32     9        0.000000       -0.430053         1
        19        20        14        32     9      180.000000        0.170607         2
        19        20        14        32     9        0.000000        0.243833         3
        19        20        14        32     9      180.000000        0.024422         4
        20        14        13        31     9        0.000000        0.043507         1
        20        14        13        31     9      180.000000       -0.173794         2
        20        14        13        31     9        0.000000        0.309328         3
        20        14        13        31     9      180.000000       -0.036326         4
        20        14        16        21     9        0.000000       -0.454566         1
        20        14        16        21     9      180.000000        0.242032         2
        20        14        16        21     9        0.000000        0.143071         3
        20        14        16        21     9      180.000000        0.208712         4
        20        14        16        68     9        0.000000       -0.391941         1
        20        14        16        68     9      180.000000        0.123120         2
        20        14        16        68     9        0.000000        0.322652         3
        20        14        16        68     9      180.000000        0.045492         4
        20        19        18        50     9        0.000000       -1.205837         1
        20        19        18        50     9      180.000000       -0.024594         2
        20        19        18        50     9        0.000000        0.127041         3
        20        19        18        50     9      180.000000        0.096010         4
        20        19        18        57     9        0.000000       -0.470892         1
        20        19        18        57     9      180.000000        0.118851         2
        20        19        18        57     9        0.000000        0.267874         3
        20        19        18        57     9      180.000000        0.031479         4
        21        16        14        32     9        0.000000       -0.386013         1
        21        16        14        32     9      180.000000        0.011541         2
        21        16        14        32     9        0.000000        0.353951         3
        21        16        14        32     9      180.000000       -0.009309         4
        21        16        17        55     9        0.000000        0.122902         1
        21        16        17        55     9      180.000000        0.128407         2
        21        16        17        55     9        0.000000        0.386720         3
        21        16        17        55     9      180.000000       -0.072984         4
        21        16        17        56     9        0.000000        0.122902         1
        21        16        17        56     9      180.000000        0.128407         2
        21        16        17        56     9        0.000000        0.386720         3
        21        16        17        56     9      180.000000       -0.072984         4
        21        22        23        25     9        0.000000        2.923749         1
        21        22        23        25     9      180.000000        2.022095         2
        21        22        23        25     9        0.000000        0.151149         3
        21        22        23        25     9      180.000000       -0.373995         4
        21        22        23        26     9        0.000000       -0.304414         1
        21        22        23        26     9      180.000000        3.200684         2
        21        22        23        26     9        0.000000        0.463910         3
        21        22        23        26     9      180.000000       -0.514292         4
        22        21        16        68     9        0.000000        0.020172         1
        22        21        16        68     9      180.000000        0.144925         2
        22        21        16        68     9        0.000000        0.214736         3
        22        21        16        68     9      180.000000        0.179789         4
        22        23        25        34     9        0.000000        0.509539         1
        22        23        25        34     9      180.000000       28.889665         2
        22        23        25        34     9        0.000000        0.564950         3
        22        23        25        34     9      180.000000       -0.961131         4
        22        23        26        35     9        0.000000       -1.127037         1
        22        23        26        35     9      180.000000       15.581777         2
        22        23        26        35     9        0.000000       -0.036420         3
        22        23        26        35     9      180.000000       -0.602861         4
        23        22        21        33     9        0.000000       -0.415752         1
        23        22        21        33     9      180.000000        9.010384         2
        23        22        21        33     9        0.000000        0.175298         3
        23        22        21        33     9      180.000000       -0.065606         4
        23        25        34        35     9        0.000000       -0.228535         1
        23        25        34        35     9      180.000000       27.756785         2
        23        25        34        35     9        0.000000       -2.863850         3
        23        25        34        35     9      180.000000       -0.158646         4
        23        25        34        39     9        0.000000        0.109642         1
        23        25        34        39     9      180.000000       22.524852         2
        23        25        34        39     9        0.000000        0.728535         3
        23        25        34        39     9      180.000000       -0.420500         4
        23        26        35        34     9        0.000000        0.019507         1
        23        26        35        34     9      180.000000       29.322726         2
        23        26        35        34     9        0.000000       -6.425576         3
        23        26        35        34     9      180.000000       -0.474428         4
        23        26        35        36     9        0.000000        0.448650         1
        23        26        35        36     9      180.000000       11.835073         2
        23        26        35        36     9        0.000000        0.424426         3
        23        26        35        36     9      180.000000       -0.134990         4
        24        22        21        33     9        0.000000       -0.005332         1
        24        22        21        33     9      180.000000       10.730372         2
        24        22        21        33     9        0.000000       -0.060300         3
        24        22        21        33     9      180.000000       -0.147584         4
        24        22        23        25     9        0.000000       -1.392140         1
        24        22        23        25     9      180.000000        3.582888         2
        24        22        23        25     9        0.000000        0.461599         3
        24        22        23        25     9      180.000000        0.214010         4
        24        22        23        26     9        0.000000        0.210149         1
        24        22        23        26     9      180.000000        4.370762         2
        24        22        23        26     9        0.000000       -0.343613         3
        24        22        23        26     9      180.000000        0.218765         4
        25        23        26        35     9        0.000000       -0.590193         1
        25        23        26        35     9      180.000000       31.322398         2
        25        23        26        35     9        0.000000       -5.851399         3
        25        23        26        35     9      180.000000       -0.585767         4
        25        34        35        26     9        0.000000       -0.800174         1
        25        34        35        26     9      180.000000       28.383673         2
        25        34        35        26     9        0.000000       -5.049933         3
        25        34        35        26     9      180.000000       -1.030530         4
        25        34        35        36     9        0.000000        0.006237         1
        25        34        35        36     9      180.000000       19.786124         2
        25        34        35        36     9        0.000000       -0.767005         3
        25        34        35        36     9      180.000000       -1.000863         4
        25        34        39        38     9        0.000000       -1.761287         1
        25        34        39        38     9      180.000000       -0.518566         2
        25        34        39        38     9        0.000000        0.250165         3
        25        34        39        38     9      180.000000        0.137553         4
        25        34        39        45     9        0.000000        0.061059         1
        25        34        39        45     9      180.000000        0.031081         2
        25        34        39        45     9        0.000000        0.254497         3
        25        34        39        45     9      180.000000       -0.033807         4
        25        34        39        46     9        0.000000        0.061059         1
        25        34        39        46     9      180.000000        0.031081         2
        25        34        39        46     9        0.000000        0.254497         3
        25        34        39        46     9      180.000000       -0.033807         4
        26        23        25        34     9        0.000000       -0.414856         1
        26        23        25        34     9      180.000000       36.017356         2
        26        23        25        34     9        0.000000       -4.165866         3
        26        23        25        34     9      180.000000        0.025250         4
        26        35        34        39     9        0.000000        0.102614         1
        26        35        34        39     9      180.000000       18.114968         2
        26        35        34        39     9        0.000000       -0.791874         3
        26        35        34        39     9      180.000000       -0.971119         4
        26        35        36        37     9        0.000000       -3.606837         1
        26        35        36        37     9      180.000000       -0.362514         2
        26        35        36        37     9        0.000000        0.387711         3
        26        35        36        37     9      180.000000        0.164191         4
        26        35        36        41     9        0.000000        0.050382         1
        26        35        36        41     9      180.000000        0.088073         2
        26        35        36        41     9        0.000000        0.411892         3
        26        35        36        41     9      180.000000       -0.037587         4
        26        35        36        42     9        0.000000        0.050382         1
        26        35        36        42     9      180.000000        0.088073         2
        26        35        36        42     9        0.000000        0.411892         3
        26        35        36        42     9      180.000000       -0.037587         4
        28         8         9        29     9        0.000000       -0.126585         1
        28         8         9        29     9      180.000000       12.580460         2
        28         8         9        29     9        0.000000       -0.724906         3
        28         8         9        29     9      180.000000        0.333797         4
        31        13        14        32     9        0.000000       -0.814507         1
        31        13        14        32     9      180.000000        0.167782         2
        31        13        14        32     9        0.000000        0.494591         3
        31        13        14        32     9      180.000000        0.213033         4
        32        14        16        68     9        0.000000        0.153115         1
        32        14        16        68     9      180.000000       -0.171492         2
        32        14        16        68     9        0.000000        0.417295         3
        32        14        16        68     9      180.000000       -0.052650         4
        32        14        20        60     9        0.000000        0.035948         1
        32        14        20        60     9      180.000000        0.015899         2
        32        14        20        60     9        0.000000        0.371211         3
        32        14        20        60     9      180.000000        0.009098         4
        32        14        20        61     9        0.000000        0.035948         1
        32        14        20        61     9      180.000000        0.015899         2
        32        14        20        61     9        0.000000        0.371211         3
        32        14        20        61     9      180.000000        0.009098         4
        33        21        16        68     9        0.000000       -0.794086         1
        33        21        16        68     9      180.000000        0.147692         2
        33        21        16        68     9        0.000000        0.562941         3
        33        21        16        68     9      180.000000        0.176200         4
        34        35        36        37     9        0.000000       -3.311658         1
        34        35        36        37     9      180.000000        0.893056         2
        34        35        36        37     9        0.000000       -0.312861         3
        34        35        36        37     9      180.000000        0.089561         4
        34        35        36        41     9        0.000000       -0.010515         1
        34        35        36        41     9      180.000000       -0.166834         2
        34        35        36        41     9        0.000000       -0.357655         3
        34        35        36        41     9      180.000000       -0.002483         4
        34        35        36        42     9        0.000000       -0.010515         1
        34        35        36        42     9      180.000000       -0.166834         2
        34        35        36        42     9        0.000000       -0.357655         3
        34        35        36        42     9      180.000000       -0.002483         4
        34        39        38        37     9        0.000000       -1.384129         1
        34        39        38        37     9      180.000000       -0.653292         2
        34        39        38        37     9        0.000000        0.502380         3
        34        39        38        37     9      180.000000       -0.119672         4
        34        39        38        43     9        0.000000        0.056682         1
        34        39        38        43     9      180.000000        0.029063         2
        34        39        38        43     9        0.000000        0.464816         3
        34        39        38        43     9      180.000000        0.029460         4
        34        39        38        44     9        0.000000        0.056682         1
        34        39        38        44     9      180.000000        0.029063         2
        34        39        38        44     9        0.000000        0.464816         3
        34        39        38        44     9      180.000000        0.029460         4
        35        34        39        38     9        0.000000       -0.581697         1
        35        34        39        38     9      180.000000       -0.178850         2
        35        34        39        38     9        0.000000       -0.539812         3
        35        34        39        38     9      180.000000        0.228285         4
        35        34        39        45     9        0.000000        0.001137         1
        35        34        39        45     9      180.000000       -0.132140         2
        35        34        39        45     9        0.000000       -0.440824         3
        35        34        39        45     9      180.000000        0.030108         4
        35        34        39        46     9        0.000000        0.001137         1
        35        34        39        46     9      180.000000       -0.132140         2
        35        34        39        46     9        0.000000       -0.440824         3
        35        34        39        46     9      180.000000        0.030108         4
        35        36        37        38     9        0.000000        1.757084         1
        35        36        37        38     9      180.000000       -1.262017         2
        35        36        37        38     9        0.000000        0.610032         3
        35        36        37        38     9      180.000000       -0.013762         4
        35        36        37        40     9        0.000000        0.088848         1
        35        36        37        40     9      180.000000        0.098174         2
        35        36        37        40     9        0.000000        0.957104         3
        35        36        37        40     9      180.000000        0.111039         4
        36        35        34        39     9        0.000000        0.173945         1
        36        35        34        39     9      180.000000       16.682661         2
        36        35        34        39     9        0.000000       -0.531422         3
        36        35        34        39     9      180.000000       -0.483502         4
        36        37        38        39     9        0.000000        2.929372         1
        36        37        38        39     9      180.000000       -2.275396         2
        36        37        38        39     9        0.000000        0.136332         3
        36        37        38        39     9      180.000000        0.386228         4
        36        37        38        43     9        0.000000       -0.123649         1
        36        37        38        43     9      180.000000        0.088231         2
        36        37        38        43     9        0.000000        0.293555         3
        36        37        38        43     9      180.000000        0.009401         4
        36        37        38        44     9        0.000000       -0.123649         1
        36        37        38        44     9      180.000000        0.088231         2
        36        37        38        44     9        0.000000        0.293555         3
        36        37        38        44     9      180.000000        0.009401         4
        36        37        40        47     9        0.000000       -0.036256         1
        36        37        40        47     9      180.000000        0.018735         2
        36        37        40        47     9        0.000000        1.024067         3
        36        37        40        47     9      180.000000        0.001601         4
        36        37        40        48     9        0.000000       -0.036256         1
        36        37        40        48     9      180.000000        0.018735         2
        36        37        40        48     9        0.000000        1.024067         3
        36        37        40        48     9      180.000000        0.001601         4
        36        37        40        49     9        0.000000       -0.036256         1
        36        37        40        49     9      180.000000        0.018735         2
        36        37        40        49     9        0.000000        1.024067         3
        36        37        40        49     9      180.000000        0.001601         4
        37        38        39        45     9        0.000000       -0.054085         1
        37        38        39        45     9      180.000000        0.034526         2
        37        38        39        45     9        0.000000        0.373195         3
        37        38        39        45     9      180.000000        0.083514         4
        37        38        39        46     9        0.000000       -0.054085         1
        37        38        39        46     9      180.000000        0.034526         2
        37        38        39        46     9        0.000000        0.373195         3
        37        38        39        46     9      180.000000        0.083514         4
        38        37        36        41     9        0.000000       -0.029691         1
        38        37        36        41     9      180.000000        0.036400         2
        38        37        36        41     9        0.000000        0.631979         3
        38        37        36        41     9      180.000000        0.071457         4
        38        37        36        42     9        0.000000       -0.029691         1
        38        37        36        42     9      180.000000        0.036400         2
        38        37        36        42     9        0.000000        0.631979         3
        38        37        36        42     9      180.000000        0.071457         4
        38        37        40        47     9        0.000000       -0.014100         1
        38        37        40        47     9      180.000000        0.015343         2
        38        37        40        47     9        0.000000        0.884158         3
        38        37        40        47     9      180.000000        0.019132         4
        38        37        40        48     9        0.000000       -0.014100         1
        38        37        40        48     9      180.000000        0.015343         2
        38        37        40        48     9        0.000000        0.884158         3
        38        37        40        48     9      180.000000        0.019132         4
        38        37        40        49     9        0.000000       -0.014100         1
        38        37        40        49     9      180.000000        0.015343         2
        38        37        40        49     9        0.000000        0.884158         3
        38        37        40        49     9      180.000000        0.019132         4
        39        38        37        40     9        0.000000        1.698500         1
        39        38        37        40     9      180.000000       -0.487751         2
        39        38        37        40     9        0.000000        0.450767         3
        39        38        37        40     9      180.000000        0.246699         4
        40        37        36        41     9        0.000000        0.111988         1
        40        37        36        41     9      180.000000        0.004567         2
        40        37        36        41     9        0.000000        0.981665         3
        40        37        36        41     9      180.000000       -0.069874         4
        40        37        36        42     9        0.000000        0.111988         1
        40        37        36        42     9      180.000000        0.004567         2
        40        37        36        42     9        0.000000        0.981665         3
        40        37        36        42     9      180.000000       -0.069874         4
        40        37        38        43     9        0.000000       -0.115413         1
        40        37        38        43     9      180.000000       -0.101300         2
        40        37        38        43     9        0.000000        0.611434         3
        40        37        38        43     9      180.000000       -0.123227         4
        40        37        38        44     9        0.000000       -0.115413         1
        40        37        38        44     9      180.000000       -0.101300         2
        40        37        38        44     9        0.000000        0.611434         3
        40        37        38        44     9      180.000000       -0.123227         4
        43        38        39        45     9        0.000000       -0.014895         1
        43        38        39        45     9      180.000000       -0.022227         2
        43        38        39        45     9        0.000000        0.401862         3
        43        38        39        45     9      180.000000       -0.001746         4
        43        38        39        46     9        0.000000       -0.014895         1
        43        38        39        46     9      180.000000       -0.022227         2
        43        38        39        46     9        0.000000        0.401862         3
        43        38        39        46     9      180.000000       -0.001746         4
        44        38        39        45     9        0.000000       -0.014895         1
        44        38        39        45     9      180.000000       -0.022227         2
        44        38        39        45     9        0.000000        0.401862         3
        44        38        39        45     9      180.000000       -0.001746         4
        44        38        39        46     9        0.000000       -0.014895         1
        44        38        39        46     9      180.000000       -0.022227         2
        44        38        39        46     9        0.000000        0.401862         3
        44        38        39        46     9      180.000000       -0.001746         4
        50        18        17        55     9        0.000000        0.178565         1
        50        18        17        55     9      180.000000        0.124017         2
        50        18        17        55     9        0.000000        0.213224         3
        50        18        17        55     9      180.000000       -0.042705         4
        50        18        17        56     9        0.000000        0.178565         1
        50        18        17        56     9      180.000000        0.124017         2
        50        18        17        56     9        0.000000        0.213224         3
        50        18        17        56     9      180.000000       -0.042705         4
        50        18        19        58     9        0.000000        0.159078         1
        50        18        19        58     9      180.000000        0.098531         2
        50        18        19        58     9        0.000000        0.249228         3
        50        18        19        58     9      180.000000       -0.047820         4
        50        18        19        59     9        0.000000        0.159078         1
        50        18        19        59     9      180.000000        0.098531         2
        50        18        19        59     9        0.000000        0.249228         3
        50        18        19        59     9      180.000000       -0.047820         4
        50        52        53        62     9        0.000000       -0.008626         1
        50        52        53        62     9      180.000000        0.038862         2
        50        52        53        62     9        0.000000        0.235749         3
        50        52        53        62     9      180.000000        0.020475         4
        50        52        53        63     9        0.000000       -0.008626         1
        50        52        53        63     9      180.000000        0.038862         2
        50        52        53        63     9        0.000000        0.235749         3
        50        52        53        63     9      180.000000        0.020475         4
        50        52        53        64     9        0.000000       -0.008626         1
        50        52        53        64     9      180.000000        0.038862         2
        50        52        53        64     9        0.000000        0.235749         3
        50        52        53        64     9      180.000000        0.020475         4
        50        52        54        65     9        0.000000       -0.008626         1
        50        52        54        65     9      180.000000        0.038862         2
        50        52        54        65     9        0.000000        0.235749         3
        50        52        54        65     9      180.000000        0.020475         4
        50        52        54        66     9        0.000000       -0.008626         1
        50        52        54        66     9      180.000000        0.038862         2
        50        52        54        66     9        0.000000        0.235749         3
        50        52        54        66     9      180.000000        0.020475         4
        50        52        54        67     9        0.000000       -0.008626         1
        50        52        54        67     9      180.000000        0.038862         2
        50        52        54        67     9        0.000000        0.235749         3
        50        52        54        67     9      180.000000        0.020475         4
        51        50        18        57     9        0.000000        1.593583         1
        51        50        18        57     9      180.000000        0.703025         2
        51        50        18        57     9        0.000000        0.717740         3
        51        50        18        57     9      180.000000       -0.500486         4
        51        50        52        53     9        0.000000       -0.375518         1
        51        50        52        53     9      180.000000       13.044421         2
        51        50        52        53     9        0.000000       -1.547115         3
        51        50        52        53     9      180.000000       -0.087257         4
        51        50        52        54     9        0.000000       -0.375518         1
        51        50        52        54     9      180.000000       13.044421         2
        51        50        52        54     9        0.000000       -1.547115         3
        51        50        52        54     9      180.000000       -0.087257         4
        52        50        18        57     9        0.000000       -0.215324         1
        52        50        18        57     9      180.000000        0.004504         2
        52        50        18        57     9        0.000000       -0.151551         3
        52        50        18        57     9      180.000000       -0.047823         4
        53        52        54        65     9        0.000000       -0.024574         1
        53        52        54        65     9      180.000000        0.053683         2
        53        52        54        65     9        0.000000        1.208154         3
        53        52        54        65     9      180.000000        0.010416         4
        53        52        54        66     9        0.000000       -0.024574         1
        53        52        54        66     9      180.000000        0.053683         2
        53        52        54        66     9        0.000000        1.208154         3
        53        52        54        66     9      180.000000        0.010416         4
        53        52        54        67     9        0.000000       -0.024574         1
        53        52        54        67     9      180.000000        0.053683         2
        53        52        54        67     9        0.000000        1.208154         3
        53        52        54        67     9      180.000000        0.010416         4
        54        52        53        62     9        0.000000       -0.024574         1
        54        52        53        62     9      180.000000        0.053683         2
        54        52        53        62     9        0.000000        1.208154         3
        54        52        53        62     9      180.000000        0.010416         4
        54        52        53        63     9        0.000000       -0.024574         1
        54        52        53        63     9      180.000000        0.053683         2
        54        52        53        63     9        0.000000        1.208154         3
        54        52        53        63     9      180.000000        0.010416         4
        54        52        53        64     9        0.000000       -0.024574         1
        54        52        53        64     9      180.000000        0.053683         2
        54        52        53        64     9        0.000000        1.208154         3
        54        52        53        64     9      180.000000        0.010416         4
        55        17        16        68     9        0.000000        0.032620         1
        55        17        16        68     9      180.000000        0.014450         2
        55        17        16        68     9        0.000000        0.397221         3
        55        17        16        68     9      180.000000        0.013351         4
        55        17        18        57     9        0.000000        0.092902         1
        55        17        18        57     9      180.000000        0.093401         2
        55        17        18        57     9        0.000000        0.416253         3
        55        17        18        57     9      180.000000       -0.035407         4
        56        17        16        68     9        0.000000        0.032620         1
        56        17        16        68     9      180.000000        0.014450         2
        56        17        16        68     9        0.000000        0.397221         3
        56        17        16        68     9      180.000000        0.013351         4
        56        17        18        57     9        0.000000        0.092902         1
        56        17        18        57     9      180.000000        0.093401         2
        56        17        18        57     9        0.000000        0.416253         3
        56        17        18        57     9      180.000000       -0.035407         4
        57        18        19        58     9        0.000000        0.089169         1
        57        18        19        58     9      180.000000        0.058938         2
        57        18        19        58     9        0.000000        0.395713         3
        57        18        19        58     9      180.000000       -0.024133         4
        57        18        19        59     9        0.000000        0.089169         1
        57        18        19        59     9      180.000000        0.058938         2
        57        18        19        59     9        0.000000        0.395713         3
        57        18        19        59     9      180.000000       -0.024133         4
        58        19        20        60     9        0.000000        0.013546         1
        58        19        20        60     9      180.000000        0.010717         2
        58        19        20        60     9        0.000000        0.296412         3
        58        19        20        60     9      180.000000        0.043706         4
        58        19        20        61     9        0.000000        0.013546         1
        58        19        20        61     9      180.000000        0.010717         2
        58        19        20        61     9        0.000000        0.296412         3
        58        19        20        61     9      180.000000        0.043706         4
        59        19        20        60     9        0.000000        0.013546         1
        59        19        20        60     9      180.000000        0.010717         2
        59        19        20        60     9        0.000000        0.296412         3
        59        19        20        60     9      180.000000        0.043706         4
        59        19        20        61     9        0.000000        0.013546         1
        59        19        20        61     9      180.000000        0.010717         2
        59        19        20        61     9        0.000000        0.296412         3
        59        19        20        61     9      180.000000        0.043706         4
        69         6         7        70     9        0.000000        0.485176         1
        69         6         7        70     9      180.000000       10.906636         2
        69         6         7        70     9        0.000000       -0.631073         3
        69         6         7        70     9      180.000000        0.450472         4

[ dihedrals ] ; impropers
;       ai        aj        ak        al funct           phase               k        pn
         4         3         5        27     4      180.000000        9.731191         2
         4         5        27         3     4      180.000000        9.731191         2
         4        27         3         5     4      180.000000        9.731191         2
         6         5         7        69     4      180.000000       27.893333         2
         6         7        69         5     4      180.000000       27.893333         2
         6        69         5         7     4      180.000000       27.893333         2
        12         5        13        15     4      180.000000       23.669253         2
        12        13        15         5     4      180.000000       23.669253         2
        12        15         5        13     4      180.000000       23.669253         2
        22        21        23        24     4      180.000000       14.088156         2
        22        23        24        21     4      180.000000       14.088156         2
        22        24        21        23     4      180.000000       14.088156         2
        50        18        51        52     4      180.000000       15.867168         2
        50        51        52        18     4      180.000000       15.867168         2
        50        52        18        51     4      180.000000       15.867168         2

[ pairs ]
;       ai        aj funct
         1         2     1
         1         5     1
         1         9     1
         1        27     1
         1        28     1
         1        69     1
         2         8     1
         2        29     1
         2        30     1
         3         6     1
         3        10     1
         3        12     1
         3        29     1
         3        30     1
         3        70     1
         4         7     1
         4         9     1
         4        11     1
         4        13     1
         4        15     1
         4        28     1
         4        69     1
         5         8     1
         5        14     1
         5        31     1
         5        70     1
         6        11     1
         6        13     1
         6        15     1
         6        27     1
         7         8     1
         7        10     1
         7        12     1
         7        30     1
         8        11     1
         8        27     1
         9        30     1
        10        28     1
        11        29     1
        11        70     1
        12        16     1
        12        20     1
        12        27     1
        12        32     1
        12        69     1
        13        17     1
        13        19     1
        13        21     1
        13        60     1
        13        61     1
        13        68     1
        14        15     1
        14        18     1
        14        22     1
        14        33     1
        14        55     1
        14        56     1
        14        58     1
        14        59     1
        15        31     1
        16        19     1
        16        23     1
        16        24     1
        16        31     1
        16        50     1
        16        57     1
        16        60     1
        16        61     1
        17        20     1
        17        22     1
        17        32     1
        17        33     1
        17        51     1
        17        52     1
        17        58     1
        17        59     1
        18        21     1
        18        53     1
        18        54     1
        18        60     1
        18        61     1
        18        68     1
        19        32     1
        19        51     1
        19        52     1
        19        55     1
        19        56     1
        20        21     1
        20        31     1
        20        50     1
        20        57     1
        20        68     1
        21        25     1
        21        26     1
        21        32     1
        21        55     1
        21        56     1
        22        34     1
        22        35     1
        22        68     1
        23        33     1
        23        36     1
        23        39     1
        24        25     1
        24        26     1
        24        33     1
        25        36     1
        25        38     1
        25        45     1
        25        46     1
        26        37     1
        26        39     1
        26        41     1
        26        42     1
        28        29     1
        31        32     1
        32        60     1
        32        61     1
        32        68     1
        33        68     1
        34        37     1
        34        41     1
        34        42     1
        34        43     1
        34        44     1
        35        38     1
        35        40     1
        35        45     1
        35        46     1
        36        39     1
        36        43     1
        36        44     1
        36        47     1
        36        48     1
        36        49     1
        37        45     1
        37        46     1
        38        41     1
        38        42     1
        38        47     1
        38        48     1
        38        49     1
        39        40     1
        40        41     1
        40        42     1
        40        43     1
        40        44     1
        43        45     1
        43        46     1
        44        45     1
        44        46     1
        50        55     1
        50        56     1
        50        58     1
        50        59     1
        50        62     1
        50        63     1
        50        64     1
        50        65     1
        50        66     1
        50        67     1
        51        53     1
        51        54     1
        51        57     1
        52        57     1
        53        65     1
        53        66     1
        53        67     1
        54        62     1
        54        63     1
        54        64     1
        55        57     1
        55        68     1
        56        57     1
        56        68     1
        57        58     1
        57        59     1
        58        60     1
        58        61     1
        59        60     1
        59        61     1
        69        70     1
