; ITP file created by ByteFF-ML, 2025-12-06 08:06:23.646855

[ atomtypes ]
;name           bonded.type        at.num        mass        charge   ptype           sigma         epsilon
 c0bf                                   6      0.0000       0.00000       A     3.31302e-01     4.12234e-01
 cl1bf                                 17      0.0000       0.00000       A     3.46632e-01     1.10385e+00
 c2bf                                   6      0.0000       0.00000       A     3.31666e-01     4.13604e-01
 n3bf                                   7      0.0000       0.00000       A     3.26636e-01     6.71798e-01
 c4bf                                   6      0.0000       0.00000       A     3.31567e-01     4.19426e-01
 n5bf                                   7      0.0000       0.00000       A     3.37990e-01     3.82587e-01
 c6bf                                   6      0.0000       0.00000       A     3.31459e-01     4.12830e-01
 c7bf                                   6      0.0000       0.00000       A     3.31510e-01     4.12683e-01
 c8bf                                   6      0.0000       0.00000       A     3.31516e-01     4.13195e-01
 c9bf                                   6      0.0000       0.00000       A     3.31221e-01     4.12233e-01
 c10bf                                  6      0.0000       0.00000       A     3.30939e-01     4.10940e-01
 n11bf                                  7      0.0000       0.00000       A     3.26549e-01     4.82525e-01
 c12bf                                  6      0.0000       0.00000       A     3.39829e-01     4.48416e-01
 o13bf                                  8      0.0000       0.00000       A     3.04651e-01     6.13130e-01
 c14bf                                  6      0.0000       0.00000       A     3.39970e-01     4.49282e-01
 c15bf                                  6      0.0000       0.00000       A     3.39695e-01     4.50020e-01
 c16bf                                  6      0.0000       0.00000       A     3.39807e-01     4.51065e-01
 c17bf                                  6      0.0000       0.00000       A     3.39783e-01     4.50599e-01
 c18bf                                  6      0.0000       0.00000       A     3.39773e-01     4.51249e-01
 n19bf                                  7      0.0000       0.00000       A     3.26602e-01     4.88281e-01
 c20bf                                  6      0.0000       0.00000       A     3.31258e-01     4.13621e-01
 c21bf                                  6      0.0000       0.00000       A     3.31371e-01     4.12927e-01
 o22bf                                  8      0.0000       0.00000       A     3.04582e-01     6.10219e-01
 n23bf                                  7      0.0000       0.00000       A     3.38377e-01     3.93517e-01
 s24bf                                 16      0.0000       0.00000       A     3.53468e-01     1.17897e+00
 h25bf                                  1      0.0000       0.00000       A     2.62403e-01     6.64396e-02
 h26bf                                  1      0.0000       0.00000       A     2.62486e-01     6.72871e-02
 h27bf                                  1      0.0000       0.00000       A     2.62271e-01     6.72647e-02
 h28bf                                  1      0.0000       0.00000       A     1.10518e-01     4.00278e-02
 h29bf                                  1      0.0000       0.00000       A     2.42179e-01     8.63601e-02
 h30bf                                  1      0.0000       0.00000       A     1.10612e-01     4.02241e-02
 c31bf                                  6      0.0000       0.00000       A     3.31347e-01     4.13267e-01
 c32bf                                  6      0.0000       0.00000       A     3.31421e-01     4.13824e-01
 c33bf                                  6      0.0000       0.00000       A     3.39969e-01     4.50893e-01
 n34bf                                  7      0.0000       0.00000       A     3.36930e-01     3.57427e-01
 c35bf                                  6      0.0000       0.00000       A     3.39827e-01     4.51767e-01
 c36bf                                  6      0.0000       0.00000       A     3.39882e-01     4.51317e-01
 c37bf                                  6      0.0000       0.00000       A     3.39758e-01     4.50040e-01
 h38bf                                  1      0.0000       0.00000       A     2.42170e-01     8.71342e-02
 h39bf                                  1      0.0000       0.00000       A     2.42170e-01     8.71342e-02
 h40bf                                  1      0.0000       0.00000       A     2.42257e-01     8.79530e-02
 h41bf                                  1      0.0000       0.00000       A     2.42257e-01     8.79530e-02
 h42bf                                  1      0.0000       0.00000       A     2.59883e-01     8.84270e-02
 h43bf                                  1      0.0000       0.00000       A     2.59883e-01     8.84270e-02
 h44bf                                  1      0.0000       0.00000       A     2.41989e-01     8.72555e-02
 h45bf                                  1      0.0000       0.00000       A     2.41989e-01     8.72555e-02
 h46bf                                  1      0.0000       0.00000       A     2.41989e-01     8.72555e-02
 c47bf                                  6      0.0000       0.00000       A     3.31656e-01     4.11194e-01
 o48bf                                  8      0.0000       0.00000       A     3.04848e-01     6.12895e-01
 n49bf                                  7      0.0000       0.00000       A     3.18436e-01     6.83644e-01
 c50bf                                  6      0.0000       0.00000       A     3.39787e-01     4.50128e-01
 c51bf                                  6      0.0000       0.00000       A     3.39787e-01     4.50128e-01
 h52bf                                  1      0.0000       0.00000       A     2.59758e-01     8.65469e-02
 h53bf                                  1      0.0000       0.00000       A     2.59758e-01     8.65469e-02
 h54bf                                  1      0.0000       0.00000       A     2.59710e-01     8.69571e-02
 h55bf                                  1      0.0000       0.00000       A     2.59950e-01     8.71566e-02
 h56bf                                  1      0.0000       0.00000       A     2.59950e-01     8.71566e-02
 h57bf                                  1      0.0000       0.00000       A     2.59873e-01     8.66777e-02
 h58bf                                  1      0.0000       0.00000       A     2.59873e-01     8.66777e-02
 h59bf                                  1      0.0000       0.00000       A     2.42033e-01     8.76162e-02
 h60bf                                  1      0.0000       0.00000       A     2.42033e-01     8.76162e-02
 h61bf                                  1      0.0000       0.00000       A     2.42033e-01     8.76162e-02
 h62bf                                  1      0.0000       0.00000       A     2.42033e-01     8.76162e-02
 h63bf                                  1      0.0000       0.00000       A     2.42033e-01     8.76162e-02
 h64bf                                  1      0.0000       0.00000       A     2.42033e-01     8.76162e-02
 h65bf                                  1      0.0000       0.00000       A     2.42061e-01     8.64671e-02
 h66bf                                  1      0.0000       0.00000       A     1.10584e-01     4.26853e-02
 s67bf                                 16      0.0000       0.00000       A     4.06063e-01     2.50846e-01
 o68bf                                  8      0.0000       0.00000       A     3.05053e-01     6.10407e-01
 o69bf                                  8      0.0000       0.00000       A     3.05053e-01     6.10407e-01

[ moleculetype ]
;name             nrexcl
 5k                    3

[ atoms ]
;       nr            type      resi   res      atom      cgnr      charge          mass ; qtot
         1            c0bf         1   UNL        c0         1    -0.30735       12.0110 ; qtot   -0.307
         2           cl1bf         1   UNL       cl1         2    -0.19278       35.4530 ; qtot   -0.500
         3            c2bf         1   UNL        c2         3     0.36656       12.0110 ; qtot   -0.134
         4            n3bf         1   UNL        n3         4    -0.90236       14.0070 ; qtot   -1.036
         5            c4bf         1   UNL        c4         5     0.71005       12.0110 ; qtot   -0.326
         6            n5bf         1   UNL        n5         6    -0.73865       14.0070 ; qtot   -1.065
         7            c6bf         1   UNL        c6         7    -0.15145       12.0110 ; qtot   -1.216
         8            c7bf         1   UNL        c7         8    -0.02947       12.0110 ; qtot   -1.245
         9            c8bf         1   UNL        c8         9     0.06787       12.0110 ; qtot   -1.178
        10            c9bf         1   UNL        c9        10     0.04328       12.0110 ; qtot   -1.134
        11           c10bf         1   UNL       c10        11     0.51826       12.0110 ; qtot   -0.616
        12           n11bf         1   UNL       n11        12    -0.46493       14.0070 ; qtot   -1.081
        13           c12bf         1   UNL       c12        13     0.09684       12.0110 ; qtot   -0.984
        14           o13bf         1   UNL       o13        14    -0.57796       15.9990 ; qtot   -1.562
        15           c14bf         1   UNL       c14        15     0.09890       12.0110 ; qtot   -1.463
        16           c15bf         1   UNL       c15        16    -0.07593       12.0110 ; qtot   -1.539
        17           c16bf         1   UNL       c16        17    -0.13491       12.0110 ; qtot   -1.674
        18           c17bf         1   UNL       c17        18    -0.06728       12.0110 ; qtot   -1.741
        19           c18bf         1   UNL       c18        19    -0.08731       12.0110 ; qtot   -1.829
        20           n19bf         1   UNL       n19        20    -0.49001       14.0070 ; qtot   -2.319
        21           c20bf         1   UNL       c20        21     0.53549       12.0110 ; qtot   -1.783
        22           c21bf         1   UNL       c21        22     0.38153       12.0110 ; qtot   -1.402
        23           o22bf         1   UNL       o22        23    -0.58023       15.9990 ; qtot   -1.982
        24           n23bf         1   UNL       n23        24    -0.61219       14.0070 ; qtot   -2.594
        25           s24bf         1   UNL       s24        25     0.02030       32.0670 ; qtot   -2.574
        26           h25bf         1   UNL       h25        26     0.12951        1.0080 ; qtot   -2.444
        27           h26bf         1   UNL       h26        27     0.13981        1.0080 ; qtot   -2.304
        28           h27bf         1   UNL       h27        28     0.15392        1.0080 ; qtot   -2.150
        29           h28bf         1   UNL       h28        29     0.35018        1.0080 ; qtot   -1.800
        30           h29bf         1   UNL       h29        30     0.07801        1.0080 ; qtot   -1.722
        31           h30bf         1   UNL       h30        31     0.34007        1.0080 ; qtot   -1.382
        32           c31bf         1   UNL       c31        32     0.28744       12.0110 ; qtot   -1.095
        33           c32bf         1   UNL       c32        33    -0.23576       12.0110 ; qtot   -1.331
        34           c33bf         1   UNL       c33        34     0.24225       12.0110 ; qtot   -1.088
        35           n34bf         1   UNL       n34        35    -0.71279       14.0070 ; qtot   -1.801
        36           c35bf         1   UNL       c35        36     0.15975       12.0110 ; qtot   -1.641
        37           c36bf         1   UNL       c36        37    -0.11333       12.0110 ; qtot   -1.755
        38           c37bf         1   UNL       c37        38     0.14641       12.0110 ; qtot   -1.608
        39           h38bf         1   UNL       h38        39     0.05577        1.0080 ; qtot   -1.552
        40           h39bf         1   UNL       h39        40     0.05577        1.0080 ; qtot   -1.497
        41           h40bf         1   UNL       h40        41     0.04433        1.0080 ; qtot   -1.452
        42           h41bf         1   UNL       h41        42     0.04433        1.0080 ; qtot   -1.408
        43           h42bf         1   UNL       h42        43     0.06561        1.0080 ; qtot   -1.342
        44           h43bf         1   UNL       h43        44     0.06561        1.0080 ; qtot   -1.277
        45           h44bf         1   UNL       h44        45     0.03413        1.0080 ; qtot   -1.243
        46           h45bf         1   UNL       h45        46     0.03413        1.0080 ; qtot   -1.209
        47           h46bf         1   UNL       h46        47     0.03413        1.0080 ; qtot   -1.174
        48           c47bf         1   UNL       c47        48     0.60518       12.0110 ; qtot   -0.569
        49           o48bf         1   UNL       o48        49    -0.60574       15.9990 ; qtot   -1.175
        50           n49bf         1   UNL       n49        50    -0.42066       14.0070 ; qtot   -1.596
        51           c50bf         1   UNL       c50        51     0.08301       12.0110 ; qtot   -1.513
        52           c51bf         1   UNL       c51        52     0.08301       12.0110 ; qtot   -1.430
        53           h52bf         1   UNL       h52        53     0.06130        1.0080 ; qtot   -1.368
        54           h53bf         1   UNL       h53        54     0.06130        1.0080 ; qtot   -1.307
        55           h54bf         1   UNL       h54        55     0.06316        1.0080 ; qtot   -1.244
        56           h55bf         1   UNL       h55        56     0.05027        1.0080 ; qtot   -1.194
        57           h56bf         1   UNL       h56        57     0.05027        1.0080 ; qtot   -1.143
        58           h57bf         1   UNL       h57        58     0.05517        1.0080 ; qtot   -1.088
        59           h58bf         1   UNL       h58        59     0.05517        1.0080 ; qtot   -1.033
        60           h59bf         1   UNL       h59        60     0.04477        1.0080 ; qtot   -0.988
        61           h60bf         1   UNL       h60        61     0.04477        1.0080 ; qtot   -0.943
        62           h61bf         1   UNL       h61        62     0.04477        1.0080 ; qtot   -0.899
        63           h62bf         1   UNL       h62        63     0.04477        1.0080 ; qtot   -0.854
        64           h63bf         1   UNL       h63        64     0.04477        1.0080 ; qtot   -0.809
        65           h64bf         1   UNL       h64        65     0.04477        1.0080 ; qtot   -0.764
        66           h65bf         1   UNL       h65        66     0.07796        1.0080 ; qtot   -0.686
        67           h66bf         1   UNL       h66        67     0.54817        1.0080 ; qtot   -0.138
        68           s67bf         1   UNL       s67        68     1.16113       32.0670 ; qtot    1.023
        69           o68bf         1   UNL       o68        69    -0.51145       15.9990 ; qtot    0.511
        70           o69bf         1   UNL       o69        70    -0.51142       15.9990 ; qtot   -0.000

[ bonds ]
;       ai        aj funct               r               k
         1         3     1        0.140224   286405.832031
         1        10     1        0.139508   307030.393213
         1        68     1        0.178586   139483.372192
         2         9     1        0.175390   153955.469141
         3         4     1        0.140057   258583.789795
         3         7     1        0.140453   281780.142187
         4         5     1        0.135877   303458.160205
         4        67     1        0.101718   403883.276953
         5         6     1        0.129714   455926.577930
         5        11     1        0.152714   158740.944678
         6        68     1        0.168327   128361.437549
         7         8     1        0.139131   327111.320410
         7        26     1        0.108585   320591.721924
         8         9     1        0.140025   292602.105176
         8        27     1        0.108454   326242.854395
         9        10     1        0.139239   304894.903516
        10        28     1        0.108438   326329.603955
        11        12     1        0.134845   342113.299609
        11        14     1        0.123387   590592.693652
        12        13     1        0.146471   187323.213892
        12        29     1        0.101563   408386.516357
        13        15     1        0.154770   156478.995215
        13        19     1        0.153888   172927.626123
        13        30     1        0.109296   301884.231543
        15        16     1        0.153890   171755.268506
        15        20     1        0.146250   191046.869189
        15        66     1        0.109290   301765.586133
        16        17     1        0.154579   164893.268457
        16        53     1        0.109326   300596.548340
        16        54     1        0.109326   300596.548340
        17        18     1        0.154661   163666.440186
        17        48     1        0.153191   158389.847729
        17        55     1        0.109414   302100.760693
        18        19     1        0.153693   181138.049390
        18        56     1        0.109447   297470.142188
        18        57     1        0.109447   297470.142188
        19        58     1        0.109408   298814.185791
        19        59     1        0.109408   298814.185791
        20        21     1        0.136095   315450.182471
        20        31     1        0.101409   412617.504639
        21        22     1        0.149761   181928.244165
        21        23     1        0.123205   595504.348047
        22        24     1        0.130744   394780.497705
        22        25     1        0.175753   114860.619019
        24        32     1        0.137483   250388.573877
        25        33     1        0.173418   163411.796899
        32        33     1        0.137232   358668.241504
        32        37     1        0.150284   209899.921094
        33        34     1        0.150545   205958.217187
        34        35     1        0.146468   191918.016602
        34        39     1        0.110015   279945.249805
        34        40     1        0.110015   279945.249805
        35        36     1        0.146781   189560.941406
        35        38     1        0.146077   206296.839258
        36        37     1        0.153813   178870.826514
        36        41     1        0.109814   285833.060205
        36        42     1        0.109814   285833.034668
        37        43     1        0.109539   296322.146973
        37        44     1        0.109539   296322.146973
        38        45     1        0.109765   288786.094922
        38        46     1        0.109765   288786.094922
        38        47     1        0.109765   288786.094922
        48        49     1        0.123512   586720.450684
        48        50     1        0.137606   276714.958691
        50        51     1        0.145947   208517.482446
        50        52     1        0.145947   208517.482446
        51        60     1        0.109324   300806.693213
        51        61     1        0.109324   300806.693213
        51        62     1        0.109324   300806.693213
        52        63     1        0.109324   300806.693213
        52        64     1        0.109324   300806.693213
        52        65     1        0.109324   300806.693213
        68        69     1        0.146467   524581.564258
        68        70     1        0.146467   524581.564258

[ angles ]
;       ai        aj        ak funct           theta             cth
         1         3         4     1      119.865677      676.762830
         1         3         7     1      118.610641      585.763958
         1        10         9     1      118.836014      618.280870
         1        10        28     1      119.973000      376.579695
         1        68         6     1      102.782509      568.321155
         1        68        69     1      108.351173      568.924724
         1        68        70     1      108.351173      568.924724
         2         9         8     1      119.577286      385.732068
         2         9        10     1      119.673050      348.188974
         3         1        10     1      121.501892      725.933768
         3         1        68     1      118.108658      851.583496
         3         4         5     1      123.574997      551.186138
         3         4        67     1      118.112511      418.116347
         3         7         8     1      120.243919      756.788023
         3         7        26     1      119.838196      426.250363
         4         3         7     1      120.882462      538.477084
         4         5         6     1      127.865074      556.674126
         4         5        11     1      113.643616      404.363624
         5         4        67     1      114.960793      468.660000
         5         6        68     1      119.833839      638.283705
         5        11        12     1      113.898911      442.944578
         5        11        14     1      119.248047      509.910891
         6         5        11     1      118.591148      381.945329
         6        68        69     1      107.681717      665.192732
         6        68        70     1      107.681717      665.192732
         7         8         9     1      120.027237      635.484455
         7         8        27     1      120.225601      410.420771
         8         7        26     1      119.682907      437.211497
         8         9        10     1      120.580406      648.178505
         9         8        27     1      119.963234      422.119640
         9        10        28     1      121.202797      402.671758
        10         1        68     1      120.377342      482.612870
        11        12        13     1      123.176147      519.926768
        11        12        29     1      116.696861      432.197541
        12        11        14     1      126.245705      597.624541
        12        13        15     1      111.151695      548.369905
        12        13        19     1      111.571396      632.895503
        12        13        30     1      106.191086      531.186495
        13        12        29     1      118.563095      375.661285
        13        15        16     1      110.934776      562.340364
        13        15        20     1      111.218140      547.738755
        13        15        66     1      107.758995      470.507354
        13        19        18     1      111.590134      623.913144
        13        19        58     1      108.985146      496.409229
        13        19        59     1      108.985146      496.409229
        15        13        19     1      110.869247      553.690051
        15        13        30     1      107.726135      472.542502
        15        16        17     1      111.939430      596.757301
        15        16        53     1      109.082336      493.142969
        15        16        54     1      109.082336      493.142969
        15        20        21     1      123.281532      523.533821
        15        20        31     1      117.985329      388.342599
        16        15        20     1      111.416893      612.846063
        16        15        66     1      108.673912      471.627763
        16        17        18     1      110.560959      569.917990
        16        17        48     1      110.802452      642.130488
        16        17        55     1      107.640671      495.211858
        17        16        53     1      109.789185      465.155383
        17        16        54     1      109.789185      465.155383
        17        18        19     1      111.603378      627.166571
        17        18        56     1      109.459435      468.787845
        17        18        57     1      109.459435      468.787845
        17        48        49     1      120.367775      453.866799
        17        48        50     1      118.348633      449.080890
        18        17        48     1      111.026161      653.509377
        18        17        55     1      107.798851      493.236244
        18        19        58     1      109.998474      502.411408
        18        19        59     1      109.998474      502.411408
        19        13        30     1      108.866577      471.308198
        19        18        56     1      109.708351      513.116564
        19        18        57     1      109.708351      513.116564
        20        15        66     1      106.369919      527.599138
        20        21        22     1      114.245560      430.111414
        20        21        23     1      124.890869      615.174089
        21        20        31     1      117.270615      420.964947
        21        22        24     1      124.340652      359.309363
        21        22        25     1      120.844772      468.365589
        22        21        23     1      120.964073      537.680773
        22        24        32     1      111.406593      328.705787
        22        25        33     1       88.551132      167.360000
        24        22        25     1      114.891418      167.360000
        24        32        33     1      115.272217      312.892188
        24        32        37     1      122.848999      461.667684
        25        33        32     1      110.263878      167.360000
        25        33        34     1      125.788002      401.332369
        32        33        34     1      123.996292      562.620314
        32        37        36     1      109.429955      644.587349
        32        37        43     1      109.759384      484.571854
        32        37        44     1      109.759384      484.571854
        33        32        37     1      121.676254      406.530862
        33        34        35     1      110.200546      563.933816
        33        34        39     1      110.205734      462.983196
        33        34        40     1      110.205734      462.983196
        34        35        36     1      111.045578      613.756014
        34        35        38     1      111.203835      630.245325
        35        34        39     1      109.551048      459.134690
        35        34        40     1      109.551048      459.134690
        35        36        37     1      112.270889      625.644432
        35        36        41     1      109.041969      476.770682
        35        36        42     1      109.041969      476.770682
        35        38        45     1      110.858498      481.423224
        35        38        46     1      110.858498      481.423224
        35        38        47     1      110.858498      481.423224
        36        35        38     1      112.192528      649.121399
        36        37        43     1      110.261795      502.853519
        36        37        44     1      110.261795      502.853519
        37        36        41     1      109.631447      493.664916
        37        36        42     1      109.631447      493.664916
        39        34        40     1      106.585083      354.341693
        41        36        42     1      107.114723      348.812845
        43        37        44     1      106.901878      363.316136
        45        38        46     1      108.062943      347.504005
        45        38        47     1      108.062943      347.504005
        46        38        47     1      108.062943      347.504005
        48        17        55     1      108.212730      515.178845
        48        50        51     1      122.129654      505.902714
        48        50        52     1      122.129654      505.902714
        49        48        50     1      121.081711      636.267423
        50        51        60     1      110.326584      477.859265
        50        51        61     1      110.326584      477.859265
        50        51        62     1      110.326584      477.859265
        50        52        63     1      110.326584      477.859265
        50        52        64     1      110.326584      477.859265
        50        52        65     1      110.326584      477.859265
        51        50        52     1      114.947632      573.331217
        53        16        54     1      107.084274      355.159487
        56        18        57     1      106.645180      359.821255
        58        19        59     1      106.839844      356.387024
        60        51        61     1      108.724709      349.793087
        60        51        62     1      108.724709      349.793087
        61        51        62     1      108.724709      349.793087
        63        52        64     1      108.724709      349.793087
        63        52        65     1      108.724709      349.793087
        64        52        65     1      108.724709      349.793087
        69        68        70     1      119.750511      772.349060

[ dihedrals ] ; propers for gromacs 4.5 or higher, use funct 9
;       ai        aj        ak        al funct           phase               k        pn
         1         3         4         5     9        0.000000       -1.443731         1
         1         3         4         5     9      180.000000        2.361310         2
         1         3         4         5     9        0.000000       -0.315992         3
         1         3         4         5     9      180.000000        0.218516         4
         1         3         4        67     9        0.000000        1.227355         1
         1         3         4        67     9      180.000000        2.930320         2
         1         3         4        67     9        0.000000        0.070400         3
         1         3         4        67     9      180.000000        0.377368         4
         1         3         7         8     9        0.000000        0.143728         1
         1         3         7         8     9      180.000000       16.803865         2
         1         3         7         8     9        0.000000       -0.988451         3
         1         3         7         8     9      180.000000       -0.341977         4
         1         3         7        26     9        0.000000        0.097199         1
         1         3         7        26     9      180.000000       12.963361         2
         1         3         7        26     9        0.000000       -0.374542         3
         1         3         7        26     9      180.000000        0.092718         4
         1        10         9         2     9        0.000000        0.165271         1
         1        10         9         2     9      180.000000       18.674781         2
         1        10         9         2     9        0.000000        0.044232         3
         1        10         9         2     9      180.000000       -0.615316         4
         1        10         9         8     9        0.000000       -0.210317         1
         1        10         9         8     9      180.000000       17.795708         2
         1        10         9         8     9        0.000000       -1.519595         3
         1        10         9         8     9      180.000000       -0.455839         4
         1        68         6         5     9        0.000000        0.648959         1
         1        68         6         5     9      180.000000       -1.952904         2
         1        68         6         5     9        0.000000       -0.078969         3
         1        68         6         5     9      180.000000       -0.199593         4
         2         9         8         7     9        0.000000        0.292615         1
         2         9         8         7     9      180.000000       17.731464         2
         2         9         8         7     9        0.000000        0.140133         3
         2         9         8         7     9      180.000000       -0.456119         4
         2         9         8        27     9        0.000000        0.241633         1
         2         9         8        27     9      180.000000       12.814490         2
         2         9         8        27     9        0.000000       -0.171767         3
         2         9         8        27     9      180.000000        0.265449         4
         2         9        10        28     9        0.000000        0.162962         1
         2         9        10        28     9      180.000000       13.411485         2
         2         9        10        28     9        0.000000       -0.175935         3
         2         9        10        28     9      180.000000        0.295585         4
         3         1        10         9     9        0.000000       -0.065361         1
         3         1        10         9     9      180.000000       18.943899         2
         3         1        10         9     9        0.000000       -1.561993         3
         3         1        10         9     9      180.000000       -0.511273         4
         3         1        10        28     9        0.000000        0.417872         1
         3         1        10        28     9      180.000000       14.356474         2
         3         1        10        28     9        0.000000       -0.490324         3
         3         1        10        28     9      180.000000       -0.044129         4
         3         1        68         6     9        0.000000        0.588294         1
         3         1        68         6     9      180.000000       -2.349026         2
         3         1        68         6     9        0.000000        0.696627         3
         3         1        68         6     9      180.000000       -0.048739         4
         3         1        68        69     9        0.000000       -0.407482         1
         3         1        68        69     9      180.000000        0.604433         2
         3         1        68        69     9        0.000000        0.932175         3
         3         1        68        69     9      180.000000        0.033332         4
         3         1        68        70     9        0.000000       -0.407482         1
         3         1        68        70     9      180.000000        0.604433         2
         3         1        68        70     9        0.000000        0.932175         3
         3         1        68        70     9      180.000000        0.033332         4
         3         4         5         6     9        0.000000        2.255404         1
         3         4         5         6     9      180.000000        9.478324         2
         3         4         5         6     9        0.000000       -0.764671         3
         3         4         5         6     9      180.000000       -0.529869         4
         3         4         5        11     9        0.000000        5.440473         1
         3         4         5        11     9      180.000000       11.600334         2
         3         4         5        11     9        0.000000        0.524750         3
         3         4         5        11     9      180.000000       -1.022866         4
         3         7         8         9     9        0.000000        0.002931         1
         3         7         8         9     9      180.000000       18.973988         2
         3         7         8         9     9        0.000000       -1.628365         3
         3         7         8         9     9      180.000000       -0.483161         4
         3         7         8        27     9        0.000000       -0.007301         1
         3         7         8        27     9      180.000000       14.867902         2
         3         7         8        27     9        0.000000       -0.555355         3
         3         7         8        27     9      180.000000        0.067273         4
         4         3         1        10     9        0.000000       -0.073010         1
         4         3         1        10     9      180.000000       18.489328         2
         4         3         1        10     9        0.000000       -0.275753         3
         4         3         1        10     9      180.000000       -0.555777         4
         4         3         1        68     9        0.000000       -0.964302         1
         4         3         1        68     9      180.000000       18.280405         2
         4         3         1        68     9        0.000000       -0.540000         3
         4         3         1        68     9      180.000000       -1.254099         4
         4         3         7         8     9        0.000000        0.301475         1
         4         3         7         8     9      180.000000       20.300863         2
         4         3         7         8     9        0.000000        0.167599         3
         4         3         7         8     9      180.000000       -0.489564         4
         4         3         7        26     9        0.000000       -0.257736         1
         4         3         7        26     9      180.000000       15.975526         2
         4         3         7        26     9        0.000000       -0.080381         3
         4         3         7        26     9      180.000000        0.127082         4
         4         5         6        68     9        0.000000       -2.534176         1
         4         5         6        68     9      180.000000       30.419906         2
         4         5         6        68     9        0.000000       -0.824944         3
         4         5         6        68     9      180.000000       -2.927332         4
         4         5        11        12     9        0.000000        4.983426         1
         4         5        11        12     9      180.000000        3.446220         2
         4         5        11        12     9        0.000000       -0.021814         3
         4         5        11        12     9      180.000000        0.031682         4
         4         5        11        14     9        0.000000        2.190063         1
         4         5        11        14     9      180.000000        3.102248         2
         4         5        11        14     9        0.000000       -0.500289         3
         4         5        11        14     9      180.000000        0.217956         4
         5         4         3         7     9        0.000000       -0.258259         1
         5         4         3         7     9      180.000000        2.227013         2
         5         4         3         7     9        0.000000       -0.165144         3
         5         4         3         7     9      180.000000        0.313299         4
         5         6        68        69     9        0.000000        1.105788         1
         5         6        68        69     9      180.000000       -0.386358         2
         5         6        68        69     9        0.000000       -0.300819         3
         5         6        68        69     9      180.000000       -0.216365         4
         5         6        68        70     9        0.000000        1.105788         1
         5         6        68        70     9      180.000000       -0.386358         2
         5         6        68        70     9        0.000000       -0.300819         3
         5         6        68        70     9      180.000000       -0.216365         4
         5        11        12        13     9        0.000000        2.094025         1
         5        11        12        13     9      180.000000       11.979061         2
         5        11        12        13     9        0.000000        1.058849         3
         5        11        12        13     9      180.000000       -0.328944         4
         5        11        12        29     9        0.000000        0.770742         1
         5        11        12        29     9      180.000000        9.733332         2
         5        11        12        29     9        0.000000        0.335347         3
         5        11        12        29     9      180.000000        0.015605         4
         6         5         4        67     9        0.000000        6.068399         1
         6         5         4        67     9      180.000000        8.964627         2
         6         5         4        67     9        0.000000       -0.584447         3
         6         5         4        67     9      180.000000        0.486197         4
         6         5        11        12     9        0.000000        2.067816         1
         6         5        11        12     9      180.000000        1.399686         2
         6         5        11        12     9        0.000000       -0.225949         3
         6         5        11        12     9      180.000000       -0.122840         4
         6         5        11        14     9        0.000000       -6.129492         1
         6         5        11        14     9      180.000000        2.144131         2
         6         5        11        14     9        0.000000        0.172088         3
         6         5        11        14     9      180.000000       -0.094385         4
         6        68         1        10     9        0.000000       -0.872814         1
         6        68         1        10     9      180.000000       -0.877804         2
         6        68         1        10     9        0.000000       -0.236984         3
         6        68         1        10     9      180.000000        0.142148         4
         7         3         1        10     9        0.000000       -0.110168         1
         7         3         1        10     9      180.000000       15.454019         2
         7         3         1        10     9        0.000000       -1.283776         3
         7         3         1        10     9      180.000000       -0.312365         4
         7         3         1        68     9        0.000000       -0.235560         1
         7         3         1        68     9      180.000000       12.953419         2
         7         3         1        68     9        0.000000       -0.331070         3
         7         3         1        68     9      180.000000       -0.280561         4
         7         3         4        67     9        0.000000       -0.765134         1
         7         3         4        67     9      180.000000        2.784091         2
         7         3         4        67     9        0.000000        0.169683         3
         7         3         4        67     9      180.000000        0.321063         4
         7         8         9        10     9        0.000000       -0.116474         1
         7         8         9        10     9      180.000000       17.063466         2
         7         8         9        10     9        0.000000       -1.318940         3
         7         8         9        10     9      180.000000       -0.347152         4
         8         9        10        28     9        0.000000        0.034445         1
         8         9        10        28     9      180.000000       13.458171         2
         8         9        10        28     9        0.000000       -0.505654         3
         8         9        10        28     9      180.000000        0.115304         4
         9         8         7        26     9        0.000000        0.049379         1
         9         8         7        26     9      180.000000       14.552806         2
         9         8         7        26     9        0.000000       -0.506355         3
         9         8         7        26     9      180.000000        0.190222         4
         9        10         1        68     9        0.000000       -0.091381         1
         9        10         1        68     9      180.000000       15.659502         2
         9        10         1        68     9        0.000000       -0.065122         3
         9        10         1        68     9      180.000000       -0.548572         4
        10         1        68        69     9        0.000000       -0.075476         1
        10         1        68        69     9      180.000000        1.177807         2
        10         1        68        69     9        0.000000       -0.342773         3
        10         1        68        69     9      180.000000        0.187139         4
        10         1        68        70     9        0.000000       -0.075476         1
        10         1        68        70     9      180.000000        1.177807         2
        10         1        68        70     9        0.000000       -0.342773         3
        10         1        68        70     9      180.000000        0.187139         4
        10         9         8        27     9        0.000000        0.018062         1
        10         9         8        27     9      180.000000       13.343773         2
        10         9         8        27     9        0.000000       -0.568268         3
        10         9         8        27     9      180.000000        0.092512         4
        11         5         4        67     9        0.000000       -2.252901         1
        11         5         4        67     9      180.000000        6.599713         2
        11         5         4        67     9        0.000000       -0.046952         3
        11         5         4        67     9      180.000000        0.453008         4
        11         5         6        68     9        0.000000        5.401786         1
        11         5         6        68     9      180.000000       23.157230         2
        11         5         6        68     9        0.000000        1.193005         3
        11         5         6        68     9      180.000000       -2.015928         4
        11        12        13        15     9        0.000000        0.923860         1
        11        12        13        15     9      180.000000       -0.328574         2
        11        12        13        15     9        0.000000        0.407066         3
        11        12        13        15     9      180.000000        0.210040         4
        11        12        13        19     9        0.000000       -0.354985         1
        11        12        13        19     9      180.000000       -0.120480         2
        11        12        13        19     9        0.000000        0.351294         3
        11        12        13        19     9      180.000000        0.086123         4
        11        12        13        30     9        0.000000       -0.095379         1
        11        12        13        30     9      180.000000        0.054469         2
        11        12        13        30     9        0.000000        0.150089         3
        11        12        13        30     9      180.000000        0.136196         4
        12        13        15        16     9        0.000000       -0.725770         1
        12        13        15        16     9      180.000000        0.190054         2
        12        13        15        16     9        0.000000        0.078513         3
        12        13        15        16     9      180.000000        0.267949         4
        12        13        15        20     9        0.000000        2.319779         1
        12        13        15        20     9      180.000000        0.238014         2
        12        13        15        20     9        0.000000       -0.455767         3
        12        13        15        20     9      180.000000        0.148555         4
        12        13        15        66     9        0.000000       -0.370685         1
        12        13        15        66     9      180.000000        0.058949         2
        12        13        15        66     9        0.000000        0.345681         3
        12        13        15        66     9      180.000000       -0.029450         4
        12        13        19        18     9        0.000000       -0.313791         1
        12        13        19        18     9      180.000000        0.766596         2
        12        13        19        18     9        0.000000        0.190556         3
        12        13        19        18     9      180.000000        0.118904         4
        12        13        19        58     9        0.000000        0.077151         1
        12        13        19        58     9      180.000000        0.105515         2
        12        13        19        58     9        0.000000        0.386720         3
        12        13        19        58     9      180.000000       -0.081583         4
        12        13        19        59     9        0.000000        0.077151         1
        12        13        19        59     9      180.000000        0.105515         2
        12        13        19        59     9        0.000000        0.386720         3
        12        13        19        59     9      180.000000       -0.081583         4
        13        12        11        14     9        0.000000       -0.369284         1
        13        12        11        14     9      180.000000       11.465282         2
        13        12        11        14     9        0.000000        0.351768         3
        13        12        11        14     9      180.000000       -1.184931         4
        13        15        16        17     9        0.000000        3.427952         1
        13        15        16        17     9      180.000000       -1.766184         2
        13        15        16        17     9        0.000000       -0.095605         3
        13        15        16        17     9      180.000000       -0.000574         4
        13        15        16        53     9        0.000000       -0.107208         1
        13        15        16        53     9      180.000000        0.054636         2
        13        15        16        53     9        0.000000        0.167557         3
        13        15        16        53     9      180.000000        0.050578         4
        13        15        16        54     9        0.000000       -0.107208         1
        13        15        16        54     9      180.000000        0.054636         2
        13        15        16        54     9        0.000000        0.167557         3
        13        15        16        54     9      180.000000        0.050578         4
        13        15        20        21     9        0.000000        0.995711         1
        13        15        20        21     9      180.000000       -0.453752         2
        13        15        20        21     9        0.000000        0.341933         3
        13        15        20        21     9      180.000000        0.186131         4
        13        15        20        31     9        0.000000        0.528952         1
        13        15        20        31     9      180.000000       -1.147992         2
        13        15        20        31     9        0.000000        0.546465         3
        13        15        20        31     9      180.000000        0.018969         4
        13        19        18        17     9        0.000000        1.285422         1
        13        19        18        17     9      180.000000       -1.609879         2
        13        19        18        17     9        0.000000        0.191691         3
        13        19        18        17     9      180.000000        0.079947         4
        13        19        18        56     9        0.000000       -0.098693         1
        13        19        18        56     9      180.000000        0.068846         2
        13        19        18        56     9        0.000000        0.236651         3
        13        19        18        56     9      180.000000        0.022351         4
        13        19        18        57     9        0.000000       -0.098693         1
        13        19        18        57     9      180.000000        0.068846         2
        13        19        18        57     9        0.000000        0.236651         3
        13        19        18        57     9      180.000000        0.022351         4
        14        11        12        29     9        0.000000        0.204110         1
        14        11        12        29     9      180.000000       11.488983         2
        14        11        12        29     9        0.000000       -0.044978         3
        14        11        12        29     9      180.000000        0.971379         4
        15        13        12        29     9        0.000000        0.516368         1
        15        13        12        29     9      180.000000       -1.005730         2
        15        13        12        29     9        0.000000        0.510452         3
        15        13        12        29     9      180.000000        0.015019         4
        15        13        19        18     9        0.000000        2.745091         1
        15        13        19        18     9      180.000000       -1.632870         2
        15        13        19        18     9        0.000000        0.037309         3
        15        13        19        18     9      180.000000        0.063665         4
        15        13        19        58     9        0.000000       -0.101614         1
        15        13        19        58     9      180.000000        0.066054         2
        15        13        19        58     9        0.000000        0.177673         3
        15        13        19        58     9      180.000000        0.055329         4
        15        13        19        59     9        0.000000       -0.101614         1
        15        13        19        59     9      180.000000        0.066054         2
        15        13        19        59     9        0.000000        0.177673         3
        15        13        19        59     9      180.000000        0.055329         4
        15        16        17        18     9        0.000000        2.167701         1
        15        16        17        18     9      180.000000       -2.095071         2
        15        16        17        18     9        0.000000        0.100990         3
        15        16        17        18     9      180.000000       -0.067359         4
        15        16        17        48     9        0.000000       -0.969890         1
        15        16        17        48     9      180.000000       -0.492010         2
        15        16        17        48     9        0.000000        0.043330         3
        15        16        17        48     9      180.000000        0.044241         4
        15        16        17        55     9        0.000000       -0.731592         1
        15        16        17        55     9      180.000000        0.097424         2
        15        16        17        55     9        0.000000        0.165659         3
        15        16        17        55     9      180.000000        0.052140         4
        15        20        21        22     9        0.000000        1.551351         1
        15        20        21        22     9      180.000000       10.806241         2
        15        20        21        22     9        0.000000        0.659059         3
        15        20        21        22     9      180.000000       -0.282031         4
        15        20        21        23     9        0.000000       -0.687196         1
        15        20        21        23     9      180.000000       10.163927         2
        15        20        21        23     9        0.000000        0.483358         3
        15        20        21        23     9      180.000000       -1.334168         4
        16        15        13        19     9        0.000000        3.529408         1
        16        15        13        19     9      180.000000       -1.680368         2
        16        15        13        19     9        0.000000        0.064236         3
        16        15        13        19     9      180.000000        0.001746         4
        16        15        13        30     9        0.000000       -0.375549         1
        16        15        13        30     9      180.000000        0.082839         2
        16        15        13        30     9        0.000000        0.302721         3
        16        15        13        30     9      180.000000        0.051223         4
        16        15        20        21     9        0.000000       -0.005175         1
        16        15        20        21     9      180.000000       -0.401672         2
        16        15        20        21     9        0.000000        0.370215         3
        16        15        20        21     9      180.000000        0.053218         4
        16        15        20        31     9        0.000000       -0.136586         1
        16        15        20        31     9      180.000000       -0.353037         2
        16        15        20        31     9        0.000000        0.351756         3
        16        15        20        31     9      180.000000       -0.038850         4
        16        17        18        19     9        0.000000        0.883010         1
        16        17        18        19     9      180.000000       -1.399872         2
        16        17        18        19     9        0.000000        0.314248         3
        16        17        18        19     9      180.000000       -0.050797         4
        16        17        18        56     9        0.000000       -0.056826         1
        16        17        18        56     9      180.000000        0.050149         2
        16        17        18        56     9        0.000000        0.270717         3
        16        17        18        56     9      180.000000        0.019384         4
        16        17        18        57     9        0.000000       -0.056826         1
        16        17        18        57     9      180.000000        0.050149         2
        16        17        18        57     9        0.000000        0.270717         3
        16        17        18        57     9      180.000000        0.019384         4
        16        17        48        49     9        0.000000       -0.455386         1
        16        17        48        49     9      180.000000        0.737900         2
        16        17        48        49     9        0.000000        0.287526         3
        16        17        48        49     9      180.000000        0.250951         4
        16        17        48        50     9        0.000000        0.270994         1
        16        17        48        50     9      180.000000        1.080078         2
        16        17        48        50     9        0.000000       -0.027563         3
        16        17        48        50     9      180.000000        0.001527         4
        17        16        15        20     9        0.000000       -0.378319         1
        17        16        15        20     9      180.000000        0.218820         2
        17        16        15        20     9        0.000000        0.056326         3
        17        16        15        20     9      180.000000        0.226509         4
        17        16        15        66     9        0.000000       -0.669048         1
        17        16        15        66     9      180.000000        0.139249         2
        17        16        15        66     9        0.000000        0.154171         3
        17        16        15        66     9      180.000000        0.076395         4
        17        18        19        58     9        0.000000       -0.080258         1
        17        18        19        58     9      180.000000        0.083233         2
        17        18        19        58     9        0.000000        0.213417         3
        17        18        19        58     9      180.000000        0.012387         4
        17        18        19        59     9        0.000000       -0.080258         1
        17        18        19        59     9      180.000000        0.083233         2
        17        18        19        59     9        0.000000        0.213417         3
        17        18        19        59     9      180.000000        0.012387         4
        17        48        50        51     9        0.000000        7.685850         1
        17        48        50        51     9      180.000000       10.413246         2
        17        48        50        51     9        0.000000        0.340038         3
        17        48        50        51     9      180.000000       -0.442447         4
        17        48        50        52     9        0.000000        7.685850         1
        17        48        50        52     9      180.000000       10.413246         2
        17        48        50        52     9        0.000000        0.340038         3
        17        48        50        52     9      180.000000       -0.442447         4
        18        17        16        53     9        0.000000       -0.052172         1
        18        17        16        53     9      180.000000        0.058083         2
        18        17        16        53     9        0.000000        0.229959         3
        18        17        16        53     9      180.000000        0.057798         4
        18        17        16        54     9        0.000000       -0.052172         1
        18        17        16        54     9      180.000000        0.058083         2
        18        17        16        54     9        0.000000        0.229959         3
        18        17        16        54     9      180.000000        0.057798         4
        18        17        48        49     9        0.000000       -0.698289         1
        18        17        48        49     9      180.000000        0.744054         2
        18        17        48        49     9        0.000000        0.336890         3
        18        17        48        49     9      180.000000        0.225666         4
        18        17        48        50     9        0.000000        0.291846         1
        18        17        48        50     9      180.000000        1.098654         2
        18        17        48        50     9        0.000000        0.042828         3
        18        17        48        50     9      180.000000       -0.012816         4
        18        19        13        30     9        0.000000       -0.428354         1
        18        19        13        30     9      180.000000        0.168590         2
        18        19        13        30     9        0.000000        0.248277         3
        18        19        13        30     9      180.000000        0.023217         4
        19        13        12        29     9        0.000000        0.210897         1
        19        13        12        29     9      180.000000        0.044566         2
        19        13        12        29     9        0.000000        0.343490         3
        19        13        12        29     9      180.000000       -0.060282         4
        19        13        15        20     9        0.000000       -0.455751         1
        19        13        15        20     9      180.000000        0.272221         2
        19        13        15        20     9        0.000000        0.124416         3
        19        13        15        20     9      180.000000        0.215024         4
        19        13        15        66     9        0.000000       -0.376129         1
        19        13        15        66     9      180.000000        0.120733         2
        19        13        15        66     9        0.000000        0.317152         3
        19        13        15        66     9      180.000000        0.046631         4
        19        18        17        48     9        0.000000       -1.205837         1
        19        18        17        48     9      180.000000       -0.024594         2
        19        18        17        48     9        0.000000        0.127041         3
        19        18        17        48     9      180.000000        0.096010         4
        19        18        17        55     9        0.000000       -0.470892         1
        19        18        17        55     9      180.000000        0.118851         2
        19        18        17        55     9        0.000000        0.267874         3
        19        18        17        55     9      180.000000        0.031479         4
        20        15        13        30     9        0.000000       -0.401575         1
        20        15        13        30     9      180.000000        0.030469         2
        20        15        13        30     9        0.000000        0.350971         3
        20        15        13        30     9      180.000000       -0.010462         4
        20        15        16        53     9        0.000000        0.122902         1
        20        15        16        53     9      180.000000        0.128407         2
        20        15        16        53     9        0.000000        0.386720         3
        20        15        16        53     9      180.000000       -0.072984         4
        20        15        16        54     9        0.000000        0.122902         1
        20        15        16        54     9      180.000000        0.128407         2
        20        15        16        54     9        0.000000        0.386720         3
        20        15        16        54     9      180.000000       -0.072984         4
        20        21        22        24     9        0.000000        2.923749         1
        20        21        22        24     9      180.000000        2.022095         2
        20        21        22        24     9        0.000000        0.151149         3
        20        21        22        24     9      180.000000       -0.373995         4
        20        21        22        25     9        0.000000       -0.304414         1
        20        21        22        25     9      180.000000        3.200684         2
        20        21        22        25     9        0.000000        0.463910         3
        20        21        22        25     9      180.000000       -0.514292         4
        21        20        15        66     9        0.000000        0.020172         1
        21        20        15        66     9      180.000000        0.144925         2
        21        20        15        66     9        0.000000        0.214736         3
        21        20        15        66     9      180.000000        0.179789         4
        21        22        24        32     9        0.000000        0.509539         1
        21        22        24        32     9      180.000000       28.889665         2
        21        22        24        32     9        0.000000        0.564950         3
        21        22        24        32     9      180.000000       -0.961131         4
        21        22        25        33     9        0.000000       -1.127037         1
        21        22        25        33     9      180.000000       15.581777         2
        21        22        25        33     9        0.000000       -0.036420         3
        21        22        25        33     9      180.000000       -0.602861         4
        22        21        20        31     9        0.000000       -0.415752         1
        22        21        20        31     9      180.000000        9.010384         2
        22        21        20        31     9        0.000000        0.175298         3
        22        21        20        31     9      180.000000       -0.065606         4
        22        24        32        33     9        0.000000       -0.228535         1
        22        24        32        33     9      180.000000       27.756785         2
        22        24        32        33     9        0.000000       -2.863850         3
        22        24        32        33     9      180.000000       -0.158646         4
        22        24        32        37     9        0.000000        0.109642         1
        22        24        32        37     9      180.000000       22.524852         2
        22        24        32        37     9        0.000000        0.728535         3
        22        24        32        37     9      180.000000       -0.420500         4
        22        25        33        32     9        0.000000        0.019507         1
        22        25        33        32     9      180.000000       29.322726         2
        22        25        33        32     9        0.000000       -6.425576         3
        22        25        33        32     9      180.000000       -0.474428         4
        22        25        33        34     9        0.000000        0.448650         1
        22        25        33        34     9      180.000000       11.835073         2
        22        25        33        34     9        0.000000        0.424426         3
        22        25        33        34     9      180.000000       -0.134990         4
        23        21        20        31     9        0.000000       -0.005332         1
        23        21        20        31     9      180.000000       10.730372         2
        23        21        20        31     9        0.000000       -0.060300         3
        23        21        20        31     9      180.000000       -0.147584         4
        23        21        22        24     9        0.000000       -1.392140         1
        23        21        22        24     9      180.000000        3.582888         2
        23        21        22        24     9        0.000000        0.461599         3
        23        21        22        24     9      180.000000        0.214010         4
        23        21        22        25     9        0.000000        0.210149         1
        23        21        22        25     9      180.000000        4.370762         2
        23        21        22        25     9        0.000000       -0.343613         3
        23        21        22        25     9      180.000000        0.218765         4
        24        22        25        33     9        0.000000       -0.590193         1
        24        22        25        33     9      180.000000       31.322398         2
        24        22        25        33     9        0.000000       -5.851399         3
        24        22        25        33     9      180.000000       -0.585767         4
        24        32        33        25     9        0.000000       -0.800174         1
        24        32        33        25     9      180.000000       28.383673         2
        24        32        33        25     9        0.000000       -5.049933         3
        24        32        33        25     9      180.000000       -1.030530         4
        24        32        33        34     9        0.000000        0.006237         1
        24        32        33        34     9      180.000000       19.786124         2
        24        32        33        34     9        0.000000       -0.767005         3
        24        32        33        34     9      180.000000       -1.000863         4
        24        32        37        36     9        0.000000       -1.761287         1
        24        32        37        36     9      180.000000       -0.518566         2
        24        32        37        36     9        0.000000        0.250165         3
        24        32        37        36     9      180.000000        0.137553         4
        24        32        37        43     9        0.000000        0.061059         1
        24        32        37        43     9      180.000000        0.031081         2
        24        32        37        43     9        0.000000        0.254497         3
        24        32        37        43     9      180.000000       -0.033807         4
        24        32        37        44     9        0.000000        0.061059         1
        24        32        37        44     9      180.000000        0.031081         2
        24        32        37        44     9        0.000000        0.254497         3
        24        32        37        44     9      180.000000       -0.033807         4
        25        22        24        32     9        0.000000       -0.414856         1
        25        22        24        32     9      180.000000       36.017356         2
        25        22        24        32     9        0.000000       -4.165866         3
        25        22        24        32     9      180.000000        0.025250         4
        25        33        32        37     9        0.000000        0.102614         1
        25        33        32        37     9      180.000000       18.114968         2
        25        33        32        37     9        0.000000       -0.791874         3
        25        33        32        37     9      180.000000       -0.971119         4
        25        33        34        35     9        0.000000       -3.606837         1
        25        33        34        35     9      180.000000       -0.362514         2
        25        33        34        35     9        0.000000        0.387711         3
        25        33        34        35     9      180.000000        0.164191         4
        25        33        34        39     9        0.000000        0.050382         1
        25        33        34        39     9      180.000000        0.088073         2
        25        33        34        39     9        0.000000        0.411892         3
        25        33        34        39     9      180.000000       -0.037587         4
        25        33        34        40     9        0.000000        0.050382         1
        25        33        34        40     9      180.000000        0.088073         2
        25        33        34        40     9        0.000000        0.411892         3
        25        33        34        40     9      180.000000       -0.037587         4
        26         7         8        27     9        0.000000       -0.027426         1
        26         7         8        27     9      180.000000       12.047423         2
        26         7         8        27     9        0.000000       -0.701307         3
        26         7         8        27     9      180.000000        0.285858         4
        28        10         1        68     9        0.000000        0.300678         1
        28        10         1        68     9      180.000000       12.401215         2
        28        10         1        68     9        0.000000       -0.338014         3
        28        10         1        68     9      180.000000       -0.019041         4
        29        12        13        30     9        0.000000       -0.556125         1
        29        12        13        30     9      180.000000        0.115255         2
        29        12        13        30     9        0.000000        0.502067         3
        29        12        13        30     9      180.000000        0.190581         4
        30        13        15        66     9        0.000000        0.148563         1
        30        13        15        66     9      180.000000       -0.161509         2
        30        13        15        66     9        0.000000        0.422030         3
        30        13        15        66     9      180.000000       -0.050195         4
        30        13        19        58     9        0.000000        0.033801         1
        30        13        19        58     9      180.000000        0.011585         2
        30        13        19        58     9        0.000000        0.373604         3
        30        13        19        58     9      180.000000        0.013042         4
        30        13        19        59     9        0.000000        0.033801         1
        30        13        19        59     9      180.000000        0.011585         2
        30        13        19        59     9        0.000000        0.373604         3
        30        13        19        59     9      180.000000        0.013042         4
        31        20        15        66     9        0.000000       -0.794086         1
        31        20        15        66     9      180.000000        0.147692         2
        31        20        15        66     9        0.000000        0.562941         3
        31        20        15        66     9      180.000000        0.176200         4
        32        33        34        35     9        0.000000       -3.311658         1
        32        33        34        35     9      180.000000        0.893056         2
        32        33        34        35     9        0.000000       -0.312861         3
        32        33        34        35     9      180.000000        0.089561         4
        32        33        34        39     9        0.000000       -0.010515         1
        32        33        34        39     9      180.000000       -0.166834         2
        32        33        34        39     9        0.000000       -0.357655         3
        32        33        34        39     9      180.000000       -0.002483         4
        32        33        34        40     9        0.000000       -0.010515         1
        32        33        34        40     9      180.000000       -0.166834         2
        32        33        34        40     9        0.000000       -0.357655         3
        32        33        34        40     9      180.000000       -0.002483         4
        32        37        36        35     9        0.000000       -1.384129         1
        32        37        36        35     9      180.000000       -0.653292         2
        32        37        36        35     9        0.000000        0.502380         3
        32        37        36        35     9      180.000000       -0.119672         4
        32        37        36        41     9        0.000000        0.056682         1
        32        37        36        41     9      180.000000        0.029063         2
        32        37        36        41     9        0.000000        0.464816         3
        32        37        36        41     9      180.000000        0.029460         4
        32        37        36        42     9        0.000000        0.056682         1
        32        37        36        42     9      180.000000        0.029063         2
        32        37        36        42     9        0.000000        0.464816         3
        32        37        36        42     9      180.000000        0.029460         4
        33        32        37        36     9        0.000000       -0.581697         1
        33        32        37        36     9      180.000000       -0.178850         2
        33        32        37        36     9        0.000000       -0.539812         3
        33        32        37        36     9      180.000000        0.228285         4
        33        32        37        43     9        0.000000        0.001137         1
        33        32        37        43     9      180.000000       -0.132140         2
        33        32        37        43     9        0.000000       -0.440824         3
        33        32        37        43     9      180.000000        0.030108         4
        33        32        37        44     9        0.000000        0.001137         1
        33        32        37        44     9      180.000000       -0.132140         2
        33        32        37        44     9        0.000000       -0.440824         3
        33        32        37        44     9      180.000000        0.030108         4
        33        34        35        36     9        0.000000        1.757084         1
        33        34        35        36     9      180.000000       -1.262017         2
        33        34        35        36     9        0.000000        0.610032         3
        33        34        35        36     9      180.000000       -0.013762         4
        33        34        35        38     9        0.000000        0.088848         1
        33        34        35        38     9      180.000000        0.098174         2
        33        34        35        38     9        0.000000        0.957104         3
        33        34        35        38     9      180.000000        0.111039         4
        34        33        32        37     9        0.000000        0.173945         1
        34        33        32        37     9      180.000000       16.682661         2
        34        33        32        37     9        0.000000       -0.531422         3
        34        33        32        37     9      180.000000       -0.483502         4
        34        35        36        37     9        0.000000        2.929372         1
        34        35        36        37     9      180.000000       -2.275396         2
        34        35        36        37     9        0.000000        0.136332         3
        34        35        36        37     9      180.000000        0.386228         4
        34        35        36        41     9        0.000000       -0.123649         1
        34        35        36        41     9      180.000000        0.088231         2
        34        35        36        41     9        0.000000        0.293555         3
        34        35        36        41     9      180.000000        0.009401         4
        34        35        36        42     9        0.000000       -0.123649         1
        34        35        36        42     9      180.000000        0.088231         2
        34        35        36        42     9        0.000000        0.293555         3
        34        35        36        42     9      180.000000        0.009401         4
        34        35        38        45     9        0.000000       -0.036256         1
        34        35        38        45     9      180.000000        0.018735         2
        34        35        38        45     9        0.000000        1.024067         3
        34        35        38        45     9      180.000000        0.001601         4
        34        35        38        46     9        0.000000       -0.036256         1
        34        35        38        46     9      180.000000        0.018735         2
        34        35        38        46     9        0.000000        1.024067         3
        34        35        38        46     9      180.000000        0.001601         4
        34        35        38        47     9        0.000000       -0.036256         1
        34        35        38        47     9      180.000000        0.018735         2
        34        35        38        47     9        0.000000        1.024067         3
        34        35        38        47     9      180.000000        0.001601         4
        35        36        37        43     9        0.000000       -0.054085         1
        35        36        37        43     9      180.000000        0.034526         2
        35        36        37        43     9        0.000000        0.373195         3
        35        36        37        43     9      180.000000        0.083514         4
        35        36        37        44     9        0.000000       -0.054085         1
        35        36        37        44     9      180.000000        0.034526         2
        35        36        37        44     9        0.000000        0.373195         3
        35        36        37        44     9      180.000000        0.083514         4
        36        35        34        39     9        0.000000       -0.029691         1
        36        35        34        39     9      180.000000        0.036400         2
        36        35        34        39     9        0.000000        0.631979         3
        36        35        34        39     9      180.000000        0.071457         4
        36        35        34        40     9        0.000000       -0.029691         1
        36        35        34        40     9      180.000000        0.036400         2
        36        35        34        40     9        0.000000        0.631979         3
        36        35        34        40     9      180.000000        0.071457         4
        36        35        38        45     9        0.000000       -0.014100         1
        36        35        38        45     9      180.000000        0.015343         2
        36        35        38        45     9        0.000000        0.884158         3
        36        35        38        45     9      180.000000        0.019132         4
        36        35        38        46     9        0.000000       -0.014100         1
        36        35        38        46     9      180.000000        0.015343         2
        36        35        38        46     9        0.000000        0.884158         3
        36        35        38        46     9      180.000000        0.019132         4
        36        35        38        47     9        0.000000       -0.014100         1
        36        35        38        47     9      180.000000        0.015343         2
        36        35        38        47     9        0.000000        0.884158         3
        36        35        38        47     9      180.000000        0.019132         4
        37        36        35        38     9        0.000000        1.698500         1
        37        36        35        38     9      180.000000       -0.487751         2
        37        36        35        38     9        0.000000        0.450767         3
        37        36        35        38     9      180.000000        0.246699         4
        38        35        34        39     9        0.000000        0.111988         1
        38        35        34        39     9      180.000000        0.004567         2
        38        35        34        39     9        0.000000        0.981665         3
        38        35        34        39     9      180.000000       -0.069874         4
        38        35        34        40     9        0.000000        0.111988         1
        38        35        34        40     9      180.000000        0.004567         2
        38        35        34        40     9        0.000000        0.981665         3
        38        35        34        40     9      180.000000       -0.069874         4
        38        35        36        41     9        0.000000       -0.115413         1
        38        35        36        41     9      180.000000       -0.101300         2
        38        35        36        41     9        0.000000        0.611434         3
        38        35        36        41     9      180.000000       -0.123227         4
        38        35        36        42     9        0.000000       -0.115413         1
        38        35        36        42     9      180.000000       -0.101300         2
        38        35        36        42     9        0.000000        0.611434         3
        38        35        36        42     9      180.000000       -0.123227         4
        41        36        37        43     9        0.000000       -0.014895         1
        41        36        37        43     9      180.000000       -0.022227         2
        41        36        37        43     9        0.000000        0.401862         3
        41        36        37        43     9      180.000000       -0.001746         4
        41        36        37        44     9        0.000000       -0.014895         1
        41        36        37        44     9      180.000000       -0.022227         2
        41        36        37        44     9        0.000000        0.401862         3
        41        36        37        44     9      180.000000       -0.001746         4
        42        36        37        43     9        0.000000       -0.014895         1
        42        36        37        43     9      180.000000       -0.022227         2
        42        36        37        43     9        0.000000        0.401862         3
        42        36        37        43     9      180.000000       -0.001746         4
        42        36        37        44     9        0.000000       -0.014895         1
        42        36        37        44     9      180.000000       -0.022227         2
        42        36        37        44     9        0.000000        0.401862         3
        42        36        37        44     9      180.000000       -0.001746         4
        48        17        16        53     9        0.000000        0.178565         1
        48        17        16        53     9      180.000000        0.124017         2
        48        17        16        53     9        0.000000        0.213224         3
        48        17        16        53     9      180.000000       -0.042705         4
        48        17        16        54     9        0.000000        0.178565         1
        48        17        16        54     9      180.000000        0.124017         2
        48        17        16        54     9        0.000000        0.213224         3
        48        17        16        54     9      180.000000       -0.042705         4
        48        17        18        56     9        0.000000        0.159078         1
        48        17        18        56     9      180.000000        0.098531         2
        48        17        18        56     9        0.000000        0.249228         3
        48        17        18        56     9      180.000000       -0.047820         4
        48        17        18        57     9        0.000000        0.159078         1
        48        17        18        57     9      180.000000        0.098531         2
        48        17        18        57     9        0.000000        0.249228         3
        48        17        18        57     9      180.000000       -0.047820         4
        48        50        51        60     9        0.000000       -0.008626         1
        48        50        51        60     9      180.000000        0.038862         2
        48        50        51        60     9        0.000000        0.235749         3
        48        50        51        60     9      180.000000        0.020475         4
        48        50        51        61     9        0.000000       -0.008626         1
        48        50        51        61     9      180.000000        0.038862         2
        48        50        51        61     9        0.000000        0.235749         3
        48        50        51        61     9      180.000000        0.020475         4
        48        50        51        62     9        0.000000       -0.008626         1
        48        50        51        62     9      180.000000        0.038862         2
        48        50        51        62     9        0.000000        0.235749         3
        48        50        51        62     9      180.000000        0.020475         4
        48        50        52        63     9        0.000000       -0.008626         1
        48        50        52        63     9      180.000000        0.038862         2
        48        50        52        63     9        0.000000        0.235749         3
        48        50        52        63     9      180.000000        0.020475         4
        48        50        52        64     9        0.000000       -0.008626         1
        48        50        52        64     9      180.000000        0.038862         2
        48        50        52        64     9        0.000000        0.235749         3
        48        50        52        64     9      180.000000        0.020475         4
        48        50        52        65     9        0.000000       -0.008626         1
        48        50        52        65     9      180.000000        0.038862         2
        48        50        52        65     9        0.000000        0.235749         3
        48        50        52        65     9      180.000000        0.020475         4
        49        48        17        55     9        0.000000        1.593583         1
        49        48        17        55     9      180.000000        0.703025         2
        49        48        17        55     9        0.000000        0.717740         3
        49        48        17        55     9      180.000000       -0.500486         4
        49        48        50        51     9        0.000000       -0.375518         1
        49        48        50        51     9      180.000000       13.044421         2
        49        48        50        51     9        0.000000       -1.547115         3
        49        48        50        51     9      180.000000       -0.087257         4
        49        48        50        52     9        0.000000       -0.375518         1
        49        48        50        52     9      180.000000       13.044421         2
        49        48        50        52     9        0.000000       -1.547115         3
        49        48        50        52     9      180.000000       -0.087257         4
        50        48        17        55     9        0.000000       -0.215324         1
        50        48        17        55     9      180.000000        0.004504         2
        50        48        17        55     9        0.000000       -0.151551         3
        50        48        17        55     9      180.000000       -0.047823         4
        51        50        52        63     9        0.000000       -0.024574         1
        51        50        52        63     9      180.000000        0.053683         2
        51        50        52        63     9        0.000000        1.208154         3
        51        50        52        63     9      180.000000        0.010416         4
        51        50        52        64     9        0.000000       -0.024574         1
        51        50        52        64     9      180.000000        0.053683         2
        51        50        52        64     9        0.000000        1.208154         3
        51        50        52        64     9      180.000000        0.010416         4
        51        50        52        65     9        0.000000       -0.024574         1
        51        50        52        65     9      180.000000        0.053683         2
        51        50        52        65     9        0.000000        1.208154         3
        51        50        52        65     9      180.000000        0.010416         4
        52        50        51        60     9        0.000000       -0.024574         1
        52        50        51        60     9      180.000000        0.053683         2
        52        50        51        60     9        0.000000        1.208154         3
        52        50        51        60     9      180.000000        0.010416         4
        52        50        51        61     9        0.000000       -0.024574         1
        52        50        51        61     9      180.000000        0.053683         2
        52        50        51        61     9        0.000000        1.208154         3
        52        50        51        61     9      180.000000        0.010416         4
        52        50        51        62     9        0.000000       -0.024574         1
        52        50        51        62     9      180.000000        0.053683         2
        52        50        51        62     9        0.000000        1.208154         3
        52        50        51        62     9      180.000000        0.010416         4
        53        16        15        66     9        0.000000        0.032620         1
        53        16        15        66     9      180.000000        0.014450         2
        53        16        15        66     9        0.000000        0.397221         3
        53        16        15        66     9      180.000000        0.013351         4
        53        16        17        55     9        0.000000        0.092902         1
        53        16        17        55     9      180.000000        0.093401         2
        53        16        17        55     9        0.000000        0.416253         3
        53        16        17        55     9      180.000000       -0.035407         4
        54        16        15        66     9        0.000000        0.032620         1
        54        16        15        66     9      180.000000        0.014450         2
        54        16        15        66     9        0.000000        0.397221         3
        54        16        15        66     9      180.000000        0.013351         4
        54        16        17        55     9        0.000000        0.092902         1
        54        16        17        55     9      180.000000        0.093401         2
        54        16        17        55     9        0.000000        0.416253         3
        54        16        17        55     9      180.000000       -0.035407         4
        55        17        18        56     9        0.000000        0.089169         1
        55        17        18        56     9      180.000000        0.058938         2
        55        17        18        56     9        0.000000        0.395713         3
        55        17        18        56     9      180.000000       -0.024133         4
        55        17        18        57     9        0.000000        0.089169         1
        55        17        18        57     9      180.000000        0.058938         2
        55        17        18        57     9        0.000000        0.395713         3
        55        17        18        57     9      180.000000       -0.024133         4
        56        18        19        58     9        0.000000        0.013546         1
        56        18        19        58     9      180.000000        0.010717         2
        56        18        19        58     9        0.000000        0.296412         3
        56        18        19        58     9      180.000000        0.043706         4
        56        18        19        59     9        0.000000        0.013546         1
        56        18        19        59     9      180.000000        0.010717         2
        56        18        19        59     9        0.000000        0.296412         3
        56        18        19        59     9      180.000000        0.043706         4
        57        18        19        58     9        0.000000        0.013546         1
        57        18        19        58     9      180.000000        0.010717         2
        57        18        19        58     9        0.000000        0.296412         3
        57        18        19        58     9      180.000000        0.043706         4
        57        18        19        59     9        0.000000        0.013546         1
        57        18        19        59     9      180.000000        0.010717         2
        57        18        19        59     9        0.000000        0.296412         3
        57        18        19        59     9      180.000000        0.043706         4

[ dihedrals ] ; impropers
;       ai        aj        ak        al funct           phase               k        pn
        10         1         9        28     4      180.000000        0.195011         2
        10         9        28         1     4      180.000000        0.195011         2
        10        28         1         9     4      180.000000        0.195011         2
        11         5        12        14     4      180.000000       13.615617         2
        11        12        14         5     4      180.000000       13.615617         2
        11        14         5        12     4      180.000000       13.615617         2
        21        20        22        23     4      180.000000       14.088156         2
        21        22        23        20     4      180.000000       14.088156         2
        21        23        20        22     4      180.000000       14.088156         2
        48        17        49        50     4      180.000000       15.867169         2
        48        49        50        17     4      180.000000       15.867169         2
        48        50        17        49     4      180.000000       15.867169         2

[ pairs ]
;       ai        aj funct
         1         2     1
         1         5     1
         1         8     1
         1        26     1
         1        67     1
         2         7     1
         2        27     1
         2        28     1
         3         6     1
         3         9     1
         3        11     1
         3        27     1
         3        28     1
         3        69     1
         3        70     1
         4         8     1
         4        10     1
         4        12     1
         4        14     1
         4        26     1
         4        68     1
         5         7     1
         5        13     1
         5        29     1
         5        69     1
         5        70     1
         6        10     1
         6        12     1
         6        14     1
         6        67     1
         7        10     1
         7        67     1
         7        68     1
         8        28     1
         9        26     1
         9        68     1
        10        27     1
        10        69     1
        10        70     1
        11        15     1
        11        19     1
        11        30     1
        11        67     1
        11        68     1
        12        16     1
        12        18     1
        12        20     1
        12        58     1
        12        59     1
        12        66     1
        13        14     1
        13        17     1
        13        21     1
        13        31     1
        13        53     1
        13        54     1
        13        56     1
        13        57     1
        14        29     1
        15        18     1
        15        22     1
        15        23     1
        15        29     1
        15        48     1
        15        55     1
        15        58     1
        15        59     1
        16        19     1
        16        21     1
        16        30     1
        16        31     1
        16        49     1
        16        50     1
        16        56     1
        16        57     1
        17        20     1
        17        51     1
        17        52     1
        17        58     1
        17        59     1
        17        66     1
        18        30     1
        18        49     1
        18        50     1
        18        53     1
        18        54     1
        19        20     1
        19        29     1
        19        48     1
        19        55     1
        19        66     1
        20        24     1
        20        25     1
        20        30     1
        20        53     1
        20        54     1
        21        32     1
        21        33     1
        21        66     1
        22        31     1
        22        34     1
        22        37     1
        23        24     1
        23        25     1
        23        31     1
        24        34     1
        24        36     1
        24        43     1
        24        44     1
        25        35     1
        25        37     1
        25        39     1
        25        40     1
        26        27     1
        28        68     1
        29        30     1
        30        58     1
        30        59     1
        30        66     1
        31        66     1
        32        35     1
        32        39     1
        32        40     1
        32        41     1
        32        42     1
        33        36     1
        33        38     1
        33        43     1
        33        44     1
        34        37     1
        34        41     1
        34        42     1
        34        45     1
        34        46     1
        34        47     1
        35        43     1
        35        44     1
        36        39     1
        36        40     1
        36        45     1
        36        46     1
        36        47     1
        37        38     1
        38        39     1
        38        40     1
        38        41     1
        38        42     1
        41        43     1
        41        44     1
        42        43     1
        42        44     1
        48        53     1
        48        54     1
        48        56     1
        48        57     1
        48        60     1
        48        61     1
        48        62     1
        48        63     1
        48        64     1
        48        65     1
        49        51     1
        49        52     1
        49        55     1
        50        55     1
        51        63     1
        51        64     1
        51        65     1
        52        60     1
        52        61     1
        52        62     1
        53        55     1
        53        66     1
        54        55     1
        54        66     1
        55        56     1
        55        57     1
        56        58     1
        56        59     1
        57        58     1
        57        59     1
