; ITP file created by ByteFF-ML, 2025-12-06 08:06:04.645120

[ atomtypes ]
;name           bonded.type        at.num        mass        charge   ptype           sigma         epsilon
 c0bf                                   6      0.0000       0.00000       A     3.31550e-01     4.14373e-01
 n1bf                                   7      0.0000       0.00000       A     3.26454e-01     4.90273e-01
 c2bf                                   6      0.0000       0.00000       A     3.39904e-01     4.48290e-01
 o3bf                                   8      0.0000       0.00000       A     3.04654e-01     6.12768e-01
 c4bf                                   6      0.0000       0.00000       A     3.39957e-01     4.49241e-01
 c5bf                                   6      0.0000       0.00000       A     3.39695e-01     4.50020e-01
 c6bf                                   6      0.0000       0.00000       A     3.39807e-01     4.51065e-01
 c7bf                                   6      0.0000       0.00000       A     3.39783e-01     4.50599e-01
 c8bf                                   6      0.0000       0.00000       A     3.39769e-01     4.51274e-01
 n9bf                                   7      0.0000       0.00000       A     3.26602e-01     4.88281e-01
 c10bf                                  6      0.0000       0.00000       A     3.31258e-01     4.13621e-01
 c11bf                                  6      0.0000       0.00000       A     3.31371e-01     4.12927e-01
 o12bf                                  8      0.0000       0.00000       A     3.04582e-01     6.10219e-01
 n13bf                                  7      0.0000       0.00000       A     3.38377e-01     3.93517e-01
 s14bf                                 16      0.0000       0.00000       A     3.53468e-01     1.17897e+00
 h15bf                                  1      0.0000       0.00000       A     1.10458e-01     4.05434e-02
 h16bf                                  1      0.0000       0.00000       A     2.42166e-01     8.63681e-02
 h17bf                                  1      0.0000       0.00000       A     1.10612e-01     4.02241e-02
 c18bf                                  6      0.0000       0.00000       A     3.31347e-01     4.13267e-01
 c19bf                                  6      0.0000       0.00000       A     3.31421e-01     4.13824e-01
 c20bf                                  6      0.0000       0.00000       A     3.39969e-01     4.50893e-01
 n21bf                                  7      0.0000       0.00000       A     3.36930e-01     3.57427e-01
 c22bf                                  6      0.0000       0.00000       A     3.39827e-01     4.51767e-01
 c23bf                                  6      0.0000       0.00000       A     3.39882e-01     4.51317e-01
 c24bf                                  6      0.0000       0.00000       A     3.39758e-01     4.50040e-01
 h25bf                                  1      0.0000       0.00000       A     2.42170e-01     8.71342e-02
 h26bf                                  1      0.0000       0.00000       A     2.42170e-01     8.71342e-02
 h27bf                                  1      0.0000       0.00000       A     2.42257e-01     8.79530e-02
 h28bf                                  1      0.0000       0.00000       A     2.42257e-01     8.79530e-02
 h29bf                                  1      0.0000       0.00000       A     2.59883e-01     8.84270e-02
 h30bf                                  1      0.0000       0.00000       A     2.59883e-01     8.84270e-02
 h31bf                                  1      0.0000       0.00000       A     2.41989e-01     8.72555e-02
 h32bf                                  1      0.0000       0.00000       A     2.41989e-01     8.72555e-02
 h33bf                                  1      0.0000       0.00000       A     2.41989e-01     8.72555e-02
 c34bf                                  6      0.0000       0.00000       A     3.31656e-01     4.11194e-01
 o35bf                                  8      0.0000       0.00000       A     3.04848e-01     6.12895e-01
 n36bf                                  7      0.0000       0.00000       A     3.18436e-01     6.83644e-01
 c37bf                                  6      0.0000       0.00000       A     3.39787e-01     4.50128e-01
 c38bf                                  6      0.0000       0.00000       A     3.39787e-01     4.50128e-01
 h39bf                                  1      0.0000       0.00000       A     2.59758e-01     8.65469e-02
 h40bf                                  1      0.0000       0.00000       A     2.59758e-01     8.65469e-02
 h41bf                                  1      0.0000       0.00000       A     2.59710e-01     8.69571e-02
 h42bf                                  1      0.0000       0.00000       A     2.59950e-01     8.71566e-02
 h43bf                                  1      0.0000       0.00000       A     2.59950e-01     8.71566e-02
 h44bf                                  1      0.0000       0.00000       A     2.59873e-01     8.66777e-02
 h45bf                                  1      0.0000       0.00000       A     2.59873e-01     8.66777e-02
 h46bf                                  1      0.0000       0.00000       A     2.42033e-01     8.76162e-02
 h47bf                                  1      0.0000       0.00000       A     2.42033e-01     8.76162e-02
 h48bf                                  1      0.0000       0.00000       A     2.42033e-01     8.76162e-02
 h49bf                                  1      0.0000       0.00000       A     2.42033e-01     8.76162e-02
 h50bf                                  1      0.0000       0.00000       A     2.42033e-01     8.76162e-02
 h51bf                                  1      0.0000       0.00000       A     2.42033e-01     8.76162e-02
 h52bf                                  1      0.0000       0.00000       A     2.42061e-01     8.64671e-02
 c53bf                                  6      0.0000       0.00000       A     3.31621e-01     4.15128e-01
 n54bf                                  7      0.0000       0.00000       A     3.38528e-01     3.93436e-01
 c55bf                                  6      0.0000       0.00000       A     3.31528e-01     4.13106e-01
 c56bf                                  6      0.0000       0.00000       A     3.31381e-01     4.12009e-01
 n57bf                                  7      0.0000       0.00000       A     3.20551e-01     8.59702e-01
 c58bf                                  6      0.0000       0.00000       A     3.31360e-01     4.11585e-01
 c59bf                                  6      0.0000       0.00000       A     3.31531e-01     4.14372e-01
 c60bf                                  6      0.0000       0.00000       A     3.31639e-01     4.13826e-01
 c61bf                                  6      0.0000       0.00000       A     3.31456e-01     4.13294e-01
 h62bf                                  1      0.0000       0.00000       A     2.54009e-01     6.62991e-02
 h63bf                                  1      0.0000       0.00000       A     2.62530e-01     6.80963e-02
 cl64bf                                17      0.0000       0.00000       A     3.46747e-01     1.10441e+00
 h65bf                                  1      0.0000       0.00000       A     2.62353e-01     6.73829e-02
 h66bf                                  1      0.0000       0.00000       A     2.53999e-01     6.73717e-02

[ moleculetype ]
;name             nrexcl
 8a                    3

[ atoms ]
;       nr            type      resi   res      atom      cgnr      charge          mass ; qtot
         1            c0bf         1   UNL        c0         1     0.63676       12.0110 ; qtot    0.637
         2            n1bf         1   UNL        n1         2    -0.49053       14.0070 ; qtot    0.146
         3            c2bf         1   UNL        c2         3     0.09724       12.0110 ; qtot    0.243
         4            o3bf         1   UNL        o3         4    -0.59442       15.9990 ; qtot   -0.351
         5            c4bf         1   UNL        c4         5     0.09874       12.0110 ; qtot   -0.252
         6            c5bf         1   UNL        c5         6    -0.07596       12.0110 ; qtot   -0.328
         7            c6bf         1   UNL        c6         7    -0.13491       12.0110 ; qtot   -0.463
         8            c7bf         1   UNL        c7         8    -0.06729       12.0110 ; qtot   -0.530
         9            c8bf         1   UNL        c8         9    -0.08762       12.0110 ; qtot   -0.618
        10            n9bf         1   UNL        n9        10    -0.49009       14.0070 ; qtot   -1.108
        11           c10bf         1   UNL       c10        11     0.53549       12.0110 ; qtot   -0.573
        12           c11bf         1   UNL       c11        12     0.38153       12.0110 ; qtot   -0.191
        13           o12bf         1   UNL       o12        13    -0.58023       15.9990 ; qtot   -0.771
        14           n13bf         1   UNL       n13        14    -0.61219       14.0070 ; qtot   -1.383
        15           s14bf         1   UNL       s14        15     0.02030       32.0670 ; qtot   -1.363
        16           h15bf         1   UNL       h15        16     0.33806        1.0080 ; qtot   -1.025
        17           h16bf         1   UNL       h16        17     0.07697        1.0080 ; qtot   -0.948
        18           h17bf         1   UNL       h17        18     0.34007        1.0080 ; qtot   -0.608
        19           c18bf         1   UNL       c18        19     0.28744       12.0110 ; qtot   -0.321
        20           c19bf         1   UNL       c19        20    -0.23576       12.0110 ; qtot   -0.556
        21           c20bf         1   UNL       c20        21     0.24225       12.0110 ; qtot   -0.314
        22           n21bf         1   UNL       n21        22    -0.71279       14.0070 ; qtot   -1.027
        23           c22bf         1   UNL       c22        23     0.15975       12.0110 ; qtot   -0.867
        24           c23bf         1   UNL       c23        24    -0.11333       12.0110 ; qtot   -0.981
        25           c24bf         1   UNL       c24        25     0.14641       12.0110 ; qtot   -0.834
        26           h25bf         1   UNL       h25        26     0.05577        1.0080 ; qtot   -0.778
        27           h26bf         1   UNL       h26        27     0.05577        1.0080 ; qtot   -0.723
        28           h27bf         1   UNL       h27        28     0.04433        1.0080 ; qtot   -0.678
        29           h28bf         1   UNL       h28        29     0.04433        1.0080 ; qtot   -0.634
        30           h29bf         1   UNL       h29        30     0.06561        1.0080 ; qtot   -0.568
        31           h30bf         1   UNL       h30        31     0.06561        1.0080 ; qtot   -0.503
        32           h31bf         1   UNL       h31        32     0.03413        1.0080 ; qtot   -0.469
        33           h32bf         1   UNL       h32        33     0.03413        1.0080 ; qtot   -0.434
        34           h33bf         1   UNL       h33        34     0.03413        1.0080 ; qtot   -0.400
        35           c34bf         1   UNL       c34        35     0.60518       12.0110 ; qtot    0.205
        36           o35bf         1   UNL       o35        36    -0.60574       15.9990 ; qtot   -0.401
        37           n36bf         1   UNL       n36        37    -0.42066       14.0070 ; qtot   -0.822
        38           c37bf         1   UNL       c37        38     0.08301       12.0110 ; qtot   -0.739
        39           c38bf         1   UNL       c38        39     0.08301       12.0110 ; qtot   -0.656
        40           h39bf         1   UNL       h39        40     0.06130        1.0080 ; qtot   -0.594
        41           h40bf         1   UNL       h40        41     0.06130        1.0080 ; qtot   -0.533
        42           h41bf         1   UNL       h41        42     0.06316        1.0080 ; qtot   -0.470
        43           h42bf         1   UNL       h42        43     0.05027        1.0080 ; qtot   -0.419
        44           h43bf         1   UNL       h43        44     0.05027        1.0080 ; qtot   -0.369
        45           h44bf         1   UNL       h44        45     0.05508        1.0080 ; qtot   -0.314
        46           h45bf         1   UNL       h45        46     0.05508        1.0080 ; qtot   -0.259
        47           h46bf         1   UNL       h46        47     0.04477        1.0080 ; qtot   -0.214
        48           h47bf         1   UNL       h47        48     0.04477        1.0080 ; qtot   -0.170
        49           h48bf         1   UNL       h48        49     0.04477        1.0080 ; qtot   -0.125
        50           h49bf         1   UNL       h49        50     0.04477        1.0080 ; qtot   -0.080
        51           h50bf         1   UNL       h50        51     0.04477        1.0080 ; qtot   -0.035
        52           h51bf         1   UNL       h51        52     0.04477        1.0080 ; qtot    0.010
        53           h52bf         1   UNL       h52        53     0.07783        1.0080 ; qtot    0.087
        54           c53bf         1   UNL       c53        54    -0.00560       12.0110 ; qtot    0.082
        55           n54bf         1   UNL       n54        55    -0.26279       14.0070 ; qtot   -0.181
        56           c55bf         1   UNL       c55        56    -0.21342       12.0110 ; qtot   -0.394
        57           c56bf         1   UNL       c56        57    -0.06818       12.0110 ; qtot   -0.463
        58           n57bf         1   UNL       n57        58     0.11512       14.0070 ; qtot   -0.347
        59           c58bf         1   UNL       c58        59    -0.08946       12.0110 ; qtot   -0.437
        60           c59bf         1   UNL       c59        60    -0.14047       12.0110 ; qtot   -0.577
        61           c60bf         1   UNL       c60        61     0.13046       12.0110 ; qtot   -0.447
        62           c61bf         1   UNL       c61        62    -0.06378       12.0110 ; qtot   -0.511
        63           h62bf         1   UNL       h62        63     0.14919        1.0080 ; qtot   -0.362
        64           h63bf         1   UNL       h63        64     0.14865        1.0080 ; qtot   -0.213
        65          cl64bf         1   UNL      cl64        65    -0.19129       35.4530 ; qtot   -0.404
        66           h65bf         1   UNL       h65        66     0.15918        1.0080 ; qtot   -0.245
        67           h66bf         1   UNL       h66        67     0.24498        1.0080 ; qtot   -0.000

[ bonds ]
;       ai        aj funct               r               k
         1         2     1        0.136262   310731.920605
         1         4     1        0.123432   589449.703711
         1        54     1        0.149225   194732.040063
         2         3     1        0.146217   191976.419971
         2        16     1        0.101408   412036.407715
         3         5     1        0.154770   156444.481812
         3         9     1        0.153895   172820.510718
         3        17     1        0.109309   301551.202100
         5         6     1        0.153891   171747.952124
         5        10     1        0.146252   191021.906665
         5        53     1        0.109291   301684.863330
         6         7     1        0.154579   164893.255688
         6        40     1        0.109326   300596.548340
         6        41     1        0.109326   300596.548340
         7         8     1        0.154661   163666.440186
         7        35     1        0.153191   158389.860498
         7        42     1        0.109414   302100.760693
         8         9     1        0.153693   181135.763818
         8        43     1        0.109447   297470.142188
         8        44     1        0.109447   297470.142188
         9        45     1        0.109409   298760.123730
         9        46     1        0.109409   298760.123730
        10        11     1        0.136095   315450.182471
        10        18     1        0.101409   412617.504639
        11        12     1        0.149761   181928.231396
        11        13     1        0.123205   595504.348047
        12        14     1        0.130744   394780.497705
        12        15     1        0.175753   114860.631787
        14        19     1        0.137483   250388.573877
        15        20     1        0.173418   163411.809668
        19        20     1        0.137232   358668.241504
        19        24     1        0.150284   209899.921094
        20        21     1        0.150545   205958.217187
        21        22     1        0.146468   191918.016602
        21        26     1        0.110015   279945.275342
        21        27     1        0.110015   279945.275342
        22        23     1        0.146781   189560.941406
        22        25     1        0.146077   206296.839258
        23        24     1        0.153813   178870.826514
        23        28     1        0.109814   285833.060205
        23        29     1        0.109814   285833.060205
        24        30     1        0.109539   296322.146973
        24        31     1        0.109539   296322.146973
        25        32     1        0.109765   288786.145996
        25        33     1        0.109765   288786.145996
        25        34     1        0.109765   288786.145996
        35        36     1        0.123512   586720.450684
        35        37     1        0.137606   276714.984229
        37        38     1        0.145947   208517.507983
        37        39     1        0.145947   208517.507983
        38        47     1        0.109324   300806.693213
        38        48     1        0.109324   300806.693213
        38        49     1        0.109324   300806.693213
        39        50     1        0.109324   300806.693213
        39        51     1        0.109324   300806.693213
        39        52     1        0.109324   300806.693213
        54        55     1        0.136954   265918.532813
        54        56     1        0.138620   335812.835059
        55        57     1        0.133131   328309.496045
        56        58     1        0.137728   266614.929785
        56        67     1        0.107841   346907.866357
        57        58     1        0.141498   163447.906372
        57        62     1        0.141556   282615.001367
        58        59     1        0.137369   280791.166553
        59        60     1        0.136719   387098.603223
        59        63     1        0.108328   329010.923828
        60        61     1        0.142668   254864.692871
        60        64     1        0.108291   330920.920850
        61        62     1        0.137370   360697.573437
        61        65     1        0.175303   153520.546631
        62        66     1        0.108327   330518.762451

[ angles ]
;       ai        aj        ak funct           theta             cth
         1         2         3     1      123.108055      525.210652
         1         2        16     1      116.790176      433.743110
         1        54        55     1      122.098854      443.428761
         1        54        56     1      126.061440      437.918428
         2         1         4     1      124.407578      610.989004
         2         1        54     1      113.970657      497.372074
         2         3         5     1      111.259193      547.484214
         2         3         9     1      111.678024      629.430245
         2         3        17     1      106.313744      529.151698
         3         2        16     1      117.982910      389.514656
         3         5         6     1      110.955826      561.980227
         3         5        10     1      111.206345      548.321512
         3         5        53     1      107.753036      470.675293
         3         9         8     1      111.609459      623.630895
         3         9        45     1      108.977821      496.701023
         3         9        46     1      108.977821      496.701023
         4         1        54     1      121.857971      622.617199
         5         3         9     1      110.839920      554.114350
         5         3        17     1      107.697525      472.463912
         5         6         7     1      111.940201      596.811376
         5         6        40     1      109.081688      493.138117
         5         6        41     1      109.081688      493.138117
         5        10        11     1      123.287148      523.560284
         5        10        18     1      117.982994      388.331235
         6         5        10     1      111.415794      612.989071
         6         5        53     1      108.670311      471.698086
         6         7         8     1      110.560959      569.917990
         6         7        35     1      110.802452      642.130488
         6         7        42     1      107.640671      495.211858
         7         6        40     1      109.789185      465.155383
         7         6        41     1      109.789185      465.155383
         7         8         9     1      111.600388      627.192045
         7         8        43     1      109.459435      468.787845
         7         8        44     1      109.459435      468.787845
         7        35        36     1      120.367775      453.866799
         7        35        37     1      118.348633      449.080890
         8         7        35     1      111.026161      653.509377
         8         7        42     1      107.798851      493.236244
         8         9        45     1      109.995155      502.450863
         8         9        46     1      109.995140      502.450863
         9         3        17     1      108.829567      471.303602
         9         8        43     1      109.710251      513.187717
         9         8        44     1      109.710251      513.187717
        10         5        53     1      106.367630      527.615386
        10        11        12     1      114.245560      430.111414
        10        11        13     1      124.890869      615.174089
        11        10        18     1      117.270615      420.964947
        11        12        14     1      124.340652      359.309363
        11        12        15     1      120.844772      468.365589
        12        11        13     1      120.964073      537.680773
        12        14        19     1      111.406593      328.705787
        12        15        20     1       88.551132      167.360000
        14        12        15     1      114.891418      167.360000
        14        19        20     1      115.272217      312.892188
        14        19        24     1      122.848999      461.667684
        15        20        19     1      110.263878      167.360000
        15        20        21     1      125.788002      401.332369
        19        20        21     1      123.996292      562.620314
        19        24        23     1      109.429955      644.587349
        19        24        30     1      109.759384      484.571854
        19        24        31     1      109.759384      484.571854
        20        19        24     1      121.676254      406.530862
        20        21        22     1      110.200546      563.933816
        20        21        26     1      110.205734      462.983196
        20        21        27     1      110.205734      462.983196
        21        22        23     1      111.045578      613.756014
        21        22        25     1      111.203835      630.245325
        22        21        26     1      109.551048      459.134690
        22        21        27     1      109.551048      459.134690
        22        23        24     1      112.270889      625.644432
        22        23        28     1      109.041969      476.770682
        22        23        29     1      109.041969      476.770682
        22        25        32     1      110.858498      481.423224
        22        25        33     1      110.858498      481.423224
        22        25        34     1      110.858498      481.423224
        23        22        25     1      112.192528      649.121399
        23        24        30     1      110.261795      502.853519
        23        24        31     1      110.261795      502.853519
        24        23        28     1      109.631447      493.664916
        24        23        29     1      109.631447      493.664916
        26        21        27     1      106.585083      354.341693
        28        23        29     1      107.114723      348.812845
        30        24        31     1      106.901878      363.316136
        32        25        33     1      108.062943      347.504005
        32        25        34     1      108.062943      347.504005
        33        25        34     1      108.062943      347.504005
        35         7        42     1      108.212730      515.178845
        35        37        38     1      122.129654      505.902714
        35        37        39     1      122.129654      505.902714
        36        35        37     1      121.081711      636.267423
        37        38        47     1      110.326584      477.859329
        37        38        48     1      110.326584      477.859265
        37        38        49     1      110.326584      477.859265
        37        39        50     1      110.326584      477.859265
        37        39        51     1      110.326584      477.859265
        37        39        52     1      110.326584      477.859265
        38        37        39     1      114.947632      573.331217
        40         6        41     1      107.084274      355.159487
        43         8        44     1      106.645180      359.821255
        45         9        46     1      106.834862      356.409369
        47        38        48     1      108.724693      349.793087
        47        38        49     1      108.724693      349.793087
        48        38        49     1      108.724693      349.793087
        50        39        51     1      108.724693      349.793087
        50        39        52     1      108.724693      349.793087
        51        39        52     1      108.724693      349.793087
        54        55        57     1      105.526932      472.375394
        54        56        58     1      105.258217      324.808441
        54        56        67     1      131.860504      274.420022
        55        54        56     1      111.446732      234.750899
        55        57        58     1      110.741745      257.289473
        55        57        62     1      130.644043      350.539314
        56        58        57     1      106.764572      167.360000
        56        58        59     1      131.218109      443.410598
        57        58        59     1      121.945984      701.525654
        57        62        61     1      118.665085      687.749724
        57        62        66     1      118.733276      441.659199
        58        56        67     1      122.965355      452.537433
        58        57        62     1      118.540161      774.340253
        58        59        60     1      119.617142      879.706940
        58        59        63     1      116.835922      494.606916
        59        60        61     1      119.541969      563.182322
        59        60        64     1      119.843483      429.283820
        60        59        63     1      123.428223      401.849080
        60        61        62     1      121.506546      610.642146
        60        61        65     1      118.113808      399.618733
        61        60        64     1      120.449890      437.714993
        61        62        66     1      122.589676      412.189471
        62        61        65     1      120.160912      325.808315

[ dihedrals ] ; propers for gromacs 4.5 or higher, use funct 9
;       ai        aj        ak        al funct           phase               k        pn
         1         2         3         5     9        0.000000        1.236370         1
         1         2         3         5     9      180.000000       -0.553398         2
         1         2         3         5     9        0.000000        0.333539         3
         1         2         3         5     9      180.000000        0.206068         4
         1         2         3         9     9        0.000000        0.037829         1
         1         2         3         9     9      180.000000       -0.267195         2
         1         2         3         9     9        0.000000        0.339935         3
         1         2         3         9     9      180.000000        0.084888         4
         1         2         3        17     9        0.000000        0.020193         1
         1         2         3        17     9      180.000000        0.045387         2
         1         2         3        17     9        0.000000        0.210322         3
         1         2         3        17     9      180.000000        0.147955         4
         1        54        55        57     9        0.000000        1.740759         1
         1        54        55        57     9      180.000000       19.729450         2
         1        54        55        57     9        0.000000        0.792888         3
         1        54        55        57     9      180.000000       -0.686772         4
         1        54        56        58     9        0.000000        1.009084         1
         1        54        56        58     9      180.000000       17.062400         2
         1        54        56        58     9        0.000000        0.459879         3
         1        54        56        58     9      180.000000       -1.284413         4
         1        54        56        67     9        0.000000        0.347377         1
         1        54        56        67     9      180.000000        9.275100         2
         1        54        56        67     9        0.000000        0.016660         3
         1        54        56        67     9      180.000000       -0.054226         4
         2         1        54        55     9        0.000000        0.615516         1
         2         1        54        55     9      180.000000        3.102315         2
         2         1        54        55     9        0.000000        0.044637         3
         2         1        54        55     9      180.000000       -0.307990         4
         2         1        54        56     9        0.000000       -0.206703         1
         2         1        54        56     9      180.000000        2.832806         2
         2         1        54        56     9        0.000000        0.668769         3
         2         1        54        56     9      180.000000       -0.578156         4
         2         3         5         6     9        0.000000       -0.855694         1
         2         3         5         6     9      180.000000        0.155195         2
         2         3         5         6     9        0.000000        0.107504         3
         2         3         5         6     9      180.000000        0.247767         4
         2         3         5        10     9        0.000000        2.258298         1
         2         3         5        10     9      180.000000        0.154636         2
         2         3         5        10     9        0.000000       -0.460748         3
         2         3         5        10     9      180.000000        0.129109         4
         2         3         5        53     9        0.000000       -0.417291         1
         2         3         5        53     9      180.000000        0.037532         2
         2         3         5        53     9        0.000000        0.355181         3
         2         3         5        53     9      180.000000       -0.014031         4
         2         3         9         8     9        0.000000       -0.537533         1
         2         3         9         8     9      180.000000        0.692309         2
         2         3         9         8     9        0.000000        0.180560         3
         2         3         9         8     9      180.000000        0.125849         4
         2         3         9        45     9        0.000000        0.068247         1
         2         3         9        45     9      180.000000        0.092164         2
         2         3         9        45     9        0.000000        0.381442         3
         2         3         9        45     9      180.000000       -0.078620         4
         2         3         9        46     9        0.000000        0.068247         1
         2         3         9        46     9      180.000000        0.092164         2
         2         3         9        46     9        0.000000        0.381442         3
         2         3         9        46     9      180.000000       -0.078620         4
         3         2         1         4     9        0.000000       -0.447562         1
         3         2         1         4     9      180.000000       10.417061         2
         3         2         1         4     9        0.000000        0.563335         3
         3         2         1         4     9      180.000000       -1.393420         4
         3         2         1        54     9        0.000000        0.663814         1
         3         2         1        54     9      180.000000       11.961699         2
         3         2         1        54     9        0.000000        0.739623         3
         3         2         1        54     9      180.000000       -0.186399         4
         3         5         6         7     9        0.000000        3.505785         1
         3         5         6         7     9      180.000000       -1.787053         2
         3         5         6         7     9        0.000000       -0.104382         3
         3         5         6         7     9      180.000000        0.003212         4
         3         5         6        40     9        0.000000       -0.103153         1
         3         5         6        40     9      180.000000        0.058007         2
         3         5         6        40     9        0.000000        0.166497         3
         3         5         6        40     9      180.000000        0.046879         4
         3         5         6        41     9        0.000000       -0.103153         1
         3         5         6        41     9      180.000000        0.058007         2
         3         5         6        41     9        0.000000        0.166497         3
         3         5         6        41     9      180.000000        0.046879         4
         3         5        10        11     9        0.000000        1.061512         1
         3         5        10        11     9      180.000000       -0.430390         2
         3         5        10        11     9        0.000000        0.342339         3
         3         5        10        11     9      180.000000        0.176715         4
         3         5        10        18     9        0.000000        0.587589         1
         3         5        10        18     9      180.000000       -1.111224         2
         3         5        10        18     9        0.000000        0.539650         3
         3         5        10        18     9      180.000000        0.019005         4
         3         9         8         7     9        0.000000        1.286074         1
         3         9         8         7     9      180.000000       -1.627936         2
         3         9         8         7     9        0.000000        0.189164         3
         3         9         8         7     9      180.000000        0.078232         4
         3         9         8        43     9        0.000000       -0.096214         1
         3         9         8        43     9      180.000000        0.068262         2
         3         9         8        43     9        0.000000        0.233711         3
         3         9         8        43     9      180.000000        0.023446         4
         3         9         8        44     9        0.000000       -0.096214         1
         3         9         8        44     9      180.000000        0.068262         2
         3         9         8        44     9        0.000000        0.233711         3
         3         9         8        44     9      180.000000        0.023446         4
         4         1         2        16     9        0.000000       -0.062811         1
         4         1         2        16     9      180.000000       10.597352         2
         4         1         2        16     9        0.000000       -0.082213         3
         4         1         2        16     9      180.000000       -0.146252         4
         4         1        54        55     9        0.000000       -0.697399         1
         4         1        54        55     9      180.000000        4.230412         2
         4         1        54        55     9        0.000000        0.325590         3
         4         1        54        55     9      180.000000        0.308852         4
         4         1        54        56     9        0.000000        1.115736         1
         4         1        54        56     9      180.000000        3.751468         2
         4         1        54        56     9        0.000000       -0.439230         3
         4         1        54        56     9      180.000000        0.436926         4
         5         3         2        16     9        0.000000        0.499791         1
         5         3         2        16     9      180.000000       -1.210321         2
         5         3         2        16     9        0.000000        0.532864         3
         5         3         2        16     9      180.000000        0.018838         4
         5         3         9         8     9        0.000000        2.740759         1
         5         3         9         8     9      180.000000       -1.667674         2
         5         3         9         8     9        0.000000        0.039637         3
         5         3         9         8     9      180.000000        0.059088         4
         5         3         9        45     9        0.000000       -0.104023         1
         5         3         9        45     9      180.000000        0.064659         2
         5         3         9        45     9        0.000000        0.182174         3
         5         3         9        45     9      180.000000        0.053234         4
         5         3         9        46     9        0.000000       -0.104023         1
         5         3         9        46     9      180.000000        0.064659         2
         5         3         9        46     9        0.000000        0.182174         3
         5         3         9        46     9      180.000000        0.053234         4
         5         6         7         8     9        0.000000        2.165031         1
         5         6         7         8     9      180.000000       -2.097222         2
         5         6         7         8     9        0.000000        0.100591         3
         5         6         7         8     9      180.000000       -0.066916         4
         5         6         7        35     9        0.000000       -0.983937         1
         5         6         7        35     9      180.000000       -0.488697         2
         5         6         7        35     9        0.000000        0.042854         3
         5         6         7        35     9      180.000000        0.043589         4
         5         6         7        42     9        0.000000       -0.730470         1
         5         6         7        42     9      180.000000        0.097424         2
         5         6         7        42     9        0.000000        0.165336         3
         5         6         7        42     9      180.000000        0.052036         4
         5        10        11        12     9        0.000000        1.555928         1
         5        10        11        12     9      180.000000       10.814282         2
         5        10        11        12     9        0.000000        0.661597         3
         5        10        11        12     9      180.000000       -0.283510         4
         5        10        11        13     9        0.000000       -0.697008         1
         5        10        11        13     9      180.000000       10.165090         2
         5        10        11        13     9        0.000000        0.481442         3
         5        10        11        13     9      180.000000       -1.333102         4
         6         5         3         9     9        0.000000        3.493597         1
         6         5         3         9     9      180.000000       -1.664641         2
         6         5         3         9     9        0.000000        0.080351         3
         6         5         3         9     9      180.000000       -0.006980         4
         6         5         3        17     9        0.000000       -0.367513         1
         6         5         3        17     9      180.000000        0.080485         2
         6         5         3        17     9        0.000000        0.301342         3
         6         5         3        17     9      180.000000        0.056882         4
         6         5        10        11     9        0.000000        0.002927         1
         6         5        10        11     9      180.000000       -0.404022         2
         6         5        10        11     9        0.000000        0.371083         3
         6         5        10        11     9      180.000000        0.052955         4
         6         5        10        18     9        0.000000       -0.144735         1
         6         5        10        18     9      180.000000       -0.350990         2
         6         5        10        18     9        0.000000        0.351412         3
         6         5        10        18     9      180.000000       -0.039177         4
         6         7         8         9     9        0.000000        0.883255         1
         6         7         8         9     9      180.000000       -1.399723         2
         6         7         8         9     9        0.000000        0.313351         3
         6         7         8         9     9      180.000000       -0.050724         4
         6         7         8        43     9        0.000000       -0.056826         1
         6         7         8        43     9      180.000000        0.050149         2
         6         7         8        43     9        0.000000        0.270717         3
         6         7         8        43     9      180.000000        0.019384         4
         6         7         8        44     9        0.000000       -0.056826         1
         6         7         8        44     9      180.000000        0.050149         2
         6         7         8        44     9        0.000000        0.270717         3
         6         7         8        44     9      180.000000        0.019384         4
         6         7        35        36     9        0.000000       -0.455386         1
         6         7        35        36     9      180.000000        0.737900         2
         6         7        35        36     9        0.000000        0.287526         3
         6         7        35        36     9      180.000000        0.250951         4
         6         7        35        37     9        0.000000        0.270994         1
         6         7        35        37     9      180.000000        1.080078         2
         6         7        35        37     9        0.000000       -0.027563         3
         6         7        35        37     9      180.000000        0.001527         4
         7         6         5        10     9        0.000000       -0.371142         1
         7         6         5        10     9      180.000000        0.220404         2
         7         6         5        10     9        0.000000        0.058079         3
         7         6         5        10     9      180.000000        0.224988         4
         7         6         5        53     9        0.000000       -0.669148         1
         7         6         5        53     9      180.000000        0.139992         2
         7         6         5        53     9        0.000000        0.154327         3
         7         6         5        53     9      180.000000        0.076148         4
         7         8         9        45     9        0.000000       -0.081149         1
         7         8         9        45     9      180.000000        0.083136         2
         7         8         9        45     9        0.000000        0.213491         3
         7         8         9        45     9      180.000000        0.012123         4
         7         8         9        46     9        0.000000       -0.081149         1
         7         8         9        46     9      180.000000        0.083136         2
         7         8         9        46     9        0.000000        0.213491         3
         7         8         9        46     9      180.000000        0.012123         4
         7        35        37        38     9        0.000000        7.685850         1
         7        35        37        38     9      180.000000       10.413246         2
         7        35        37        38     9        0.000000        0.340038         3
         7        35        37        38     9      180.000000       -0.442447         4
         7        35        37        39     9        0.000000        7.685850         1
         7        35        37        39     9      180.000000       10.413246         2
         7        35        37        39     9        0.000000        0.340038         3
         7        35        37        39     9      180.000000       -0.442447         4
         8         7         6        40     9        0.000000       -0.052172         1
         8         7         6        40     9      180.000000        0.058083         2
         8         7         6        40     9        0.000000        0.229959         3
         8         7         6        40     9      180.000000        0.057798         4
         8         7         6        41     9        0.000000       -0.052172         1
         8         7         6        41     9      180.000000        0.058083         2
         8         7         6        41     9        0.000000        0.229959         3
         8         7         6        41     9      180.000000        0.057798         4
         8         7        35        36     9        0.000000       -0.698289         1
         8         7        35        36     9      180.000000        0.744054         2
         8         7        35        36     9        0.000000        0.336890         3
         8         7        35        36     9      180.000000        0.225666         4
         8         7        35        37     9        0.000000        0.291846         1
         8         7        35        37     9      180.000000        1.098654         2
         8         7        35        37     9        0.000000        0.042828         3
         8         7        35        37     9      180.000000       -0.012816         4
         8         9         3        17     9        0.000000       -0.418280         1
         8         9         3        17     9      180.000000        0.164797         2
         8         9         3        17     9        0.000000        0.251112         3
         8         9         3        17     9      180.000000        0.024138         4
         9         3         2        16     9        0.000000        0.106076         1
         9         3         2        16     9      180.000000       -0.046361         2
         9         3         2        16     9        0.000000        0.345091         3
         9         3         2        16     9      180.000000       -0.061188         4
         9         3         5        10     9        0.000000       -0.397693         1
         9         3         5        10     9      180.000000        0.239787         2
         9         3         5        10     9        0.000000        0.145426         3
         9         3         5        10     9      180.000000        0.206998         4
         9         3         5        53     9        0.000000       -0.378217         1
         9         3         5        53     9      180.000000        0.118260         2
         9         3         5        53     9        0.000000        0.318474         3
         9         3         5        53     9      180.000000        0.046994         4
         9         8         7        35     9        0.000000       -1.214715         1
         9         8         7        35     9      180.000000       -0.026304         2
         9         8         7        35     9        0.000000        0.125444         3
         9         8         7        35     9      180.000000        0.097348         4
         9         8         7        42     9        0.000000       -0.470240         1
         9         8         7        42     9      180.000000        0.119524         2
         9         8         7        42     9        0.000000        0.267326         3
         9         8         7        42     9      180.000000        0.031749         4
        10         5         3        17     9        0.000000       -0.405192         1
        10         5         3        17     9      180.000000        0.019414         2
        10         5         3        17     9        0.000000        0.347075         3
        10         5         3        17     9      180.000000       -0.008172         4
        10         5         6        40     9        0.000000        0.121999         1
        10         5         6        40     9      180.000000        0.128860         2
        10         5         6        40     9        0.000000        0.387587         3
        10         5         6        40     9      180.000000       -0.072829         4
        10         5         6        41     9        0.000000        0.121999         1
        10         5         6        41     9      180.000000        0.128860         2
        10         5         6        41     9        0.000000        0.387587         3
        10         5         6        41     9      180.000000       -0.072829         4
        10        11        12        14     9        0.000000        2.923749         1
        10        11        12        14     9      180.000000        2.022095         2
        10        11        12        14     9        0.000000        0.151149         3
        10        11        12        14     9      180.000000       -0.373995         4
        10        11        12        15     9        0.000000       -0.304414         1
        10        11        12        15     9      180.000000        3.200684         2
        10        11        12        15     9        0.000000        0.463910         3
        10        11        12        15     9      180.000000       -0.514292         4
        11        10         5        53     9        0.000000        0.019529         1
        11        10         5        53     9      180.000000        0.145848         2
        11        10         5        53     9        0.000000        0.215266         3
        11        10         5        53     9      180.000000        0.179578         4
        11        12        14        19     9        0.000000        0.509539         1
        11        12        14        19     9      180.000000       28.889665         2
        11        12        14        19     9        0.000000        0.564950         3
        11        12        14        19     9      180.000000       -0.961131         4
        11        12        15        20     9        0.000000       -1.127037         1
        11        12        15        20     9      180.000000       15.581777         2
        11        12        15        20     9        0.000000       -0.036420         3
        11        12        15        20     9      180.000000       -0.602861         4
        12        11        10        18     9        0.000000       -0.415752         1
        12        11        10        18     9      180.000000        9.010384         2
        12        11        10        18     9        0.000000        0.175298         3
        12        11        10        18     9      180.000000       -0.065606         4
        12        14        19        20     9        0.000000       -0.228535         1
        12        14        19        20     9      180.000000       27.756785         2
        12        14        19        20     9        0.000000       -2.863850         3
        12        14        19        20     9      180.000000       -0.158646         4
        12        14        19        24     9        0.000000        0.109642         1
        12        14        19        24     9      180.000000       22.524852         2
        12        14        19        24     9        0.000000        0.728535         3
        12        14        19        24     9      180.000000       -0.420500         4
        12        15        20        19     9        0.000000        0.019507         1
        12        15        20        19     9      180.000000       29.322726         2
        12        15        20        19     9        0.000000       -6.425576         3
        12        15        20        19     9      180.000000       -0.474428         4
        12        15        20        21     9        0.000000        0.448650         1
        12        15        20        21     9      180.000000       11.835073         2
        12        15        20        21     9        0.000000        0.424426         3
        12        15        20        21     9      180.000000       -0.134990         4
        13        11        10        18     9        0.000000       -0.005332         1
        13        11        10        18     9      180.000000       10.730372         2
        13        11        10        18     9        0.000000       -0.060300         3
        13        11        10        18     9      180.000000       -0.147584         4
        13        11        12        14     9        0.000000       -1.392140         1
        13        11        12        14     9      180.000000        3.582888         2
        13        11        12        14     9        0.000000        0.461599         3
        13        11        12        14     9      180.000000        0.214010         4
        13        11        12        15     9        0.000000        0.210149         1
        13        11        12        15     9      180.000000        4.370762         2
        13        11        12        15     9        0.000000       -0.343613         3
        13        11        12        15     9      180.000000        0.218765         4
        14        12        15        20     9        0.000000       -0.590193         1
        14        12        15        20     9      180.000000       31.322398         2
        14        12        15        20     9        0.000000       -5.851399         3
        14        12        15        20     9      180.000000       -0.585767         4
        14        19        20        15     9        0.000000       -0.800174         1
        14        19        20        15     9      180.000000       28.383673         2
        14        19        20        15     9        0.000000       -5.049933         3
        14        19        20        15     9      180.000000       -1.030530         4
        14        19        20        21     9        0.000000        0.006237         1
        14        19        20        21     9      180.000000       19.786124         2
        14        19        20        21     9        0.000000       -0.767005         3
        14        19        20        21     9      180.000000       -1.000863         4
        14        19        24        23     9        0.000000       -1.761287         1
        14        19        24        23     9      180.000000       -0.518566         2
        14        19        24        23     9        0.000000        0.250165         3
        14        19        24        23     9      180.000000        0.137553         4
        14        19        24        30     9        0.000000        0.061059         1
        14        19        24        30     9      180.000000        0.031081         2
        14        19        24        30     9        0.000000        0.254497         3
        14        19        24        30     9      180.000000       -0.033807         4
        14        19        24        31     9        0.000000        0.061059         1
        14        19        24        31     9      180.000000        0.031081         2
        14        19        24        31     9        0.000000        0.254497         3
        14        19        24        31     9      180.000000       -0.033807         4
        15        12        14        19     9        0.000000       -0.414856         1
        15        12        14        19     9      180.000000       36.017356         2
        15        12        14        19     9        0.000000       -4.165866         3
        15        12        14        19     9      180.000000        0.025250         4
        15        20        19        24     9        0.000000        0.102614         1
        15        20        19        24     9      180.000000       18.114968         2
        15        20        19        24     9        0.000000       -0.791874         3
        15        20        19        24     9      180.000000       -0.971119         4
        15        20        21        22     9        0.000000       -3.606837         1
        15        20        21        22     9      180.000000       -0.362514         2
        15        20        21        22     9        0.000000        0.387711         3
        15        20        21        22     9      180.000000        0.164191         4
        15        20        21        26     9        0.000000        0.050382         1
        15        20        21        26     9      180.000000        0.088073         2
        15        20        21        26     9        0.000000        0.411892         3
        15        20        21        26     9      180.000000       -0.037587         4
        15        20        21        27     9        0.000000        0.050382         1
        15        20        21        27     9      180.000000        0.088073         2
        15        20        21        27     9        0.000000        0.411892         3
        15        20        21        27     9      180.000000       -0.037587         4
        16         2         1        54     9        0.000000       -0.465282         1
        16         2         1        54     9      180.000000       10.371296         2
        16         2         1        54     9        0.000000        0.490150         3
        16         2         1        54     9      180.000000        0.223667         4
        16         2         3        17     9        0.000000       -0.719056         1
        16         2         3        17     9      180.000000        0.107072         2
        16         2         3        17     9        0.000000        0.512203         3
        16         2         3        17     9      180.000000        0.191073         4
        17         3         5        53     9        0.000000        0.149244         1
        17         3         5        53     9      180.000000       -0.170651         2
        17         3         5        53     9        0.000000        0.417881         3
        17         3         5        53     9      180.000000       -0.048451         4
        17         3         9        45     9        0.000000        0.034741         1
        17         3         9        45     9      180.000000        0.016518         2
        17         3         9        45     9        0.000000        0.370958         3
        17         3         9        45     9      180.000000        0.012152         4
        17         3         9        46     9        0.000000        0.034741         1
        17         3         9        46     9      180.000000        0.016518         2
        17         3         9        46     9        0.000000        0.370958         3
        17         3         9        46     9      180.000000        0.012152         4
        18        10         5        53     9        0.000000       -0.796801         1
        18        10         5        53     9      180.000000        0.146414         2
        18        10         5        53     9        0.000000        0.563223         3
        18        10         5        53     9      180.000000        0.175350         4
        19        20        21        22     9        0.000000       -3.311658         1
        19        20        21        22     9      180.000000        0.893056         2
        19        20        21        22     9        0.000000       -0.312861         3
        19        20        21        22     9      180.000000        0.089561         4
        19        20        21        26     9        0.000000       -0.010515         1
        19        20        21        26     9      180.000000       -0.166834         2
        19        20        21        26     9        0.000000       -0.357655         3
        19        20        21        26     9      180.000000       -0.002483         4
        19        20        21        27     9        0.000000       -0.010515         1
        19        20        21        27     9      180.000000       -0.166834         2
        19        20        21        27     9        0.000000       -0.357655         3
        19        20        21        27     9      180.000000       -0.002483         4
        19        24        23        22     9        0.000000       -1.384129         1
        19        24        23        22     9      180.000000       -0.653292         2
        19        24        23        22     9        0.000000        0.502380         3
        19        24        23        22     9      180.000000       -0.119672         4
        19        24        23        28     9        0.000000        0.056682         1
        19        24        23        28     9      180.000000        0.029063         2
        19        24        23        28     9        0.000000        0.464816         3
        19        24        23        28     9      180.000000        0.029460         4
        19        24        23        29     9        0.000000        0.056682         1
        19        24        23        29     9      180.000000        0.029063         2
        19        24        23        29     9        0.000000        0.464816         3
        19        24        23        29     9      180.000000        0.029460         4
        20        19        24        23     9        0.000000       -0.581697         1
        20        19        24        23     9      180.000000       -0.178850         2
        20        19        24        23     9        0.000000       -0.539812         3
        20        19        24        23     9      180.000000        0.228285         4
        20        19        24        30     9        0.000000        0.001137         1
        20        19        24        30     9      180.000000       -0.132140         2
        20        19        24        30     9        0.000000       -0.440824         3
        20        19        24        30     9      180.000000        0.030108         4
        20        19        24        31     9        0.000000        0.001137         1
        20        19        24        31     9      180.000000       -0.132140         2
        20        19        24        31     9        0.000000       -0.440824         3
        20        19        24        31     9      180.000000        0.030108         4
        20        21        22        23     9        0.000000        1.757084         1
        20        21        22        23     9      180.000000       -1.262017         2
        20        21        22        23     9        0.000000        0.610032         3
        20        21        22        23     9      180.000000       -0.013762         4
        20        21        22        25     9        0.000000        0.088848         1
        20        21        22        25     9      180.000000        0.098174         2
        20        21        22        25     9        0.000000        0.957104         3
        20        21        22        25     9      180.000000        0.111039         4
        21        20        19        24     9        0.000000        0.173945         1
        21        20        19        24     9      180.000000       16.682661         2
        21        20        19        24     9        0.000000       -0.531422         3
        21        20        19        24     9      180.000000       -0.483502         4
        21        22        23        24     9        0.000000        2.929372         1
        21        22        23        24     9      180.000000       -2.275396         2
        21        22        23        24     9        0.000000        0.136332         3
        21        22        23        24     9      180.000000        0.386228         4
        21        22        23        28     9        0.000000       -0.123649         1
        21        22        23        28     9      180.000000        0.088231         2
        21        22        23        28     9        0.000000        0.293555         3
        21        22        23        28     9      180.000000        0.009401         4
        21        22        23        29     9        0.000000       -0.123649         1
        21        22        23        29     9      180.000000        0.088231         2
        21        22        23        29     9        0.000000        0.293555         3
        21        22        23        29     9      180.000000        0.009401         4
        21        22        25        32     9        0.000000       -0.036256         1
        21        22        25        32     9      180.000000        0.018735         2
        21        22        25        32     9        0.000000        1.024067         3
        21        22        25        32     9      180.000000        0.001601         4
        21        22        25        33     9        0.000000       -0.036256         1
        21        22        25        33     9      180.000000        0.018735         2
        21        22        25        33     9        0.000000        1.024067         3
        21        22        25        33     9      180.000000        0.001601         4
        21        22        25        34     9        0.000000       -0.036256         1
        21        22        25        34     9      180.000000        0.018735         2
        21        22        25        34     9        0.000000        1.024067         3
        21        22        25        34     9      180.000000        0.001601         4
        22        23        24        30     9        0.000000       -0.054085         1
        22        23        24        30     9      180.000000        0.034526         2
        22        23        24        30     9        0.000000        0.373195         3
        22        23        24        30     9      180.000000        0.083514         4
        22        23        24        31     9        0.000000       -0.054085         1
        22        23        24        31     9      180.000000        0.034526         2
        22        23        24        31     9        0.000000        0.373195         3
        22        23        24        31     9      180.000000        0.083514         4
        23        22        21        26     9        0.000000       -0.029691         1
        23        22        21        26     9      180.000000        0.036400         2
        23        22        21        26     9        0.000000        0.631979         3
        23        22        21        26     9      180.000000        0.071457         4
        23        22        21        27     9        0.000000       -0.029691         1
        23        22        21        27     9      180.000000        0.036400         2
        23        22        21        27     9        0.000000        0.631979         3
        23        22        21        27     9      180.000000        0.071457         4
        23        22        25        32     9        0.000000       -0.014100         1
        23        22        25        32     9      180.000000        0.015343         2
        23        22        25        32     9        0.000000        0.884158         3
        23        22        25        32     9      180.000000        0.019132         4
        23        22        25        33     9        0.000000       -0.014100         1
        23        22        25        33     9      180.000000        0.015343         2
        23        22        25        33     9        0.000000        0.884158         3
        23        22        25        33     9      180.000000        0.019132         4
        23        22        25        34     9        0.000000       -0.014100         1
        23        22        25        34     9      180.000000        0.015343         2
        23        22        25        34     9        0.000000        0.884158         3
        23        22        25        34     9      180.000000        0.019132         4
        24        23        22        25     9        0.000000        1.698500         1
        24        23        22        25     9      180.000000       -0.487751         2
        24        23        22        25     9        0.000000        0.450767         3
        24        23        22        25     9      180.000000        0.246699         4
        25        22        21        26     9        0.000000        0.111988         1
        25        22        21        26     9      180.000000        0.004567         2
        25        22        21        26     9        0.000000        0.981665         3
        25        22        21        26     9      180.000000       -0.069874         4
        25        22        21        27     9        0.000000        0.111988         1
        25        22        21        27     9      180.000000        0.004567         2
        25        22        21        27     9        0.000000        0.981665         3
        25        22        21        27     9      180.000000       -0.069874         4
        25        22        23        28     9        0.000000       -0.115413         1
        25        22        23        28     9      180.000000       -0.101300         2
        25        22        23        28     9        0.000000        0.611434         3
        25        22        23        28     9      180.000000       -0.123227         4
        25        22        23        29     9        0.000000       -0.115413         1
        25        22        23        29     9      180.000000       -0.101300         2
        25        22        23        29     9        0.000000        0.611434         3
        25        22        23        29     9      180.000000       -0.123227         4
        28        23        24        30     9        0.000000       -0.014895         1
        28        23        24        30     9      180.000000       -0.022227         2
        28        23        24        30     9        0.000000        0.401862         3
        28        23        24        30     9      180.000000       -0.001746         4
        28        23        24        31     9        0.000000       -0.014895         1
        28        23        24        31     9      180.000000       -0.022227         2
        28        23        24        31     9        0.000000        0.401862         3
        28        23        24        31     9      180.000000       -0.001746         4
        29        23        24        30     9        0.000000       -0.014895         1
        29        23        24        30     9      180.000000       -0.022227         2
        29        23        24        30     9        0.000000        0.401862         3
        29        23        24        30     9      180.000000       -0.001746         4
        29        23        24        31     9        0.000000       -0.014895         1
        29        23        24        31     9      180.000000       -0.022227         2
        29        23        24        31     9        0.000000        0.401862         3
        29        23        24        31     9      180.000000       -0.001746         4
        35         7         6        40     9        0.000000        0.178565         1
        35         7         6        40     9      180.000000        0.124017         2
        35         7         6        40     9        0.000000        0.213224         3
        35         7         6        40     9      180.000000       -0.042705         4
        35         7         6        41     9        0.000000        0.178565         1
        35         7         6        41     9      180.000000        0.124017         2
        35         7         6        41     9        0.000000        0.213224         3
        35         7         6        41     9      180.000000       -0.042705         4
        35         7         8        43     9        0.000000        0.159078         1
        35         7         8        43     9      180.000000        0.098531         2
        35         7         8        43     9        0.000000        0.249228         3
        35         7         8        43     9      180.000000       -0.047820         4
        35         7         8        44     9        0.000000        0.159078         1
        35         7         8        44     9      180.000000        0.098531         2
        35         7         8        44     9        0.000000        0.249228         3
        35         7         8        44     9      180.000000       -0.047820         4
        35        37        38        47     9        0.000000       -0.008626         1
        35        37        38        47     9      180.000000        0.038862         2
        35        37        38        47     9        0.000000        0.235749         3
        35        37        38        47     9      180.000000        0.020475         4
        35        37        38        48     9        0.000000       -0.008626         1
        35        37        38        48     9      180.000000        0.038862         2
        35        37        38        48     9        0.000000        0.235749         3
        35        37        38        48     9      180.000000        0.020475         4
        35        37        38        49     9        0.000000       -0.008626         1
        35        37        38        49     9      180.000000        0.038862         2
        35        37        38        49     9        0.000000        0.235749         3
        35        37        38        49     9      180.000000        0.020475         4
        35        37        39        50     9        0.000000       -0.008626         1
        35        37        39        50     9      180.000000        0.038862         2
        35        37        39        50     9        0.000000        0.235749         3
        35        37        39        50     9      180.000000        0.020475         4
        35        37        39        51     9        0.000000       -0.008626         1
        35        37        39        51     9      180.000000        0.038862         2
        35        37        39        51     9        0.000000        0.235749         3
        35        37        39        51     9      180.000000        0.020475         4
        35        37        39        52     9        0.000000       -0.008626         1
        35        37        39        52     9      180.000000        0.038862         2
        35        37        39        52     9        0.000000        0.235749         3
        35        37        39        52     9      180.000000        0.020475         4
        36        35         7        42     9        0.000000        1.593583         1
        36        35         7        42     9      180.000000        0.703025         2
        36        35         7        42     9        0.000000        0.717740         3
        36        35         7        42     9      180.000000       -0.500486         4
        36        35        37        38     9        0.000000       -0.375518         1
        36        35        37        38     9      180.000000       13.044421         2
        36        35        37        38     9        0.000000       -1.547115         3
        36        35        37        38     9      180.000000       -0.087257         4
        36        35        37        39     9        0.000000       -0.375518         1
        36        35        37        39     9      180.000000       13.044421         2
        36        35        37        39     9        0.000000       -1.547115         3
        36        35        37        39     9      180.000000       -0.087257         4
        37        35         7        42     9        0.000000       -0.215324         1
        37        35         7        42     9      180.000000        0.004504         2
        37        35         7        42     9        0.000000       -0.151551         3
        37        35         7        42     9      180.000000       -0.047823         4
        38        37        39        50     9        0.000000       -0.024574         1
        38        37        39        50     9      180.000000        0.053683         2
        38        37        39        50     9        0.000000        1.208154         3
        38        37        39        50     9      180.000000        0.010416         4
        38        37        39        51     9        0.000000       -0.024574         1
        38        37        39        51     9      180.000000        0.053683         2
        38        37        39        51     9        0.000000        1.208154         3
        38        37        39        51     9      180.000000        0.010416         4
        38        37        39        52     9        0.000000       -0.024574         1
        38        37        39        52     9      180.000000        0.053683         2
        38        37        39        52     9        0.000000        1.208154         3
        38        37        39        52     9      180.000000        0.010416         4
        39        37        38        47     9        0.000000       -0.024574         1
        39        37        38        47     9      180.000000        0.053683         2
        39        37        38        47     9        0.000000        1.208154         3
        39        37        38        47     9      180.000000        0.010416         4
        39        37        38        48     9        0.000000       -0.024574         1
        39        37        38        48     9      180.000000        0.053683         2
        39        37        38        48     9        0.000000        1.208154         3
        39        37        38        48     9      180.000000        0.010416         4
        39        37        38        49     9        0.000000       -0.024574         1
        39        37        38        49     9      180.000000        0.053683         2
        39        37        38        49     9        0.000000        1.208154         3
        39        37        38        49     9      180.000000        0.010416         4
        40         6         5        53     9        0.000000        0.032125         1
        40         6         5        53     9      180.000000        0.014817         2
        40         6         5        53     9        0.000000        0.397995         3
        40         6         5        53     9      180.000000        0.013189         4
        40         6         7        42     9        0.000000        0.092902         1
        40         6         7        42     9      180.000000        0.093401         2
        40         6         7        42     9        0.000000        0.416253         3
        40         6         7        42     9      180.000000       -0.035407         4
        41         6         5        53     9        0.000000        0.032125         1
        41         6         5        53     9      180.000000        0.014817         2
        41         6         5        53     9        0.000000        0.397995         3
        41         6         5        53     9      180.000000        0.013189         4
        41         6         7        42     9        0.000000        0.092902         1
        41         6         7        42     9      180.000000        0.093401         2
        41         6         7        42     9        0.000000        0.416253         3
        41         6         7        42     9      180.000000       -0.035407         4
        42         7         8        43     9        0.000000        0.089169         1
        42         7         8        43     9      180.000000        0.058938         2
        42         7         8        43     9        0.000000        0.395713         3
        42         7         8        43     9      180.000000       -0.024133         4
        42         7         8        44     9        0.000000        0.089169         1
        42         7         8        44     9      180.000000        0.058938         2
        42         7         8        44     9        0.000000        0.395713         3
        42         7         8        44     9      180.000000       -0.024133         4
        43         8         9        45     9        0.000000        0.013436         1
        43         8         9        45     9      180.000000        0.010119         2
        43         8         9        45     9        0.000000        0.296255         3
        43         8         9        45     9      180.000000        0.044245         4
        43         8         9        46     9        0.000000        0.013436         1
        43         8         9        46     9      180.000000        0.010119         2
        43         8         9        46     9        0.000000        0.296255         3
        43         8         9        46     9      180.000000        0.044245         4
        44         8         9        45     9        0.000000        0.013436         1
        44         8         9        45     9      180.000000        0.010119         2
        44         8         9        45     9        0.000000        0.296255         3
        44         8         9        45     9      180.000000        0.044245         4
        44         8         9        46     9        0.000000        0.013436         1
        44         8         9        46     9      180.000000        0.010119         2
        44         8         9        46     9        0.000000        0.296255         3
        44         8         9        46     9      180.000000        0.044245         4
        54        55        57        58     9        0.000000        0.019292         1
        54        55        57        58     9      180.000000       38.258093         2
        54        55        57        58     9        0.000000       -6.467300         3
        54        55        57        58     9      180.000000        0.164943         4
        54        55        57        62     9        0.000000       -0.023493         1
        54        55        57        62     9      180.000000       23.331481         2
        54        55        57        62     9        0.000000       -0.316877         3
        54        55        57        62     9      180.000000       -0.129754         4
        54        56        58        57     9        0.000000       -0.000864         1
        54        56        58        57     9      180.000000       24.606086         2
        54        56        58        57     9        0.000000       -7.604352         3
        54        56        58        57     9      180.000000        0.202015         4
        54        56        58        59     9        0.000000        0.617899         1
        54        56        58        59     9      180.000000        5.919240         2
        54        56        58        59     9        0.000000        1.042646         3
        54        56        58        59     9      180.000000       -0.051027         4
        55        54        56        58     9        0.000000       -0.254233         1
        55        54        56        58     9      180.000000       32.660235         2
        55        54        56        58     9        0.000000       -7.703514         3
        55        54        56        58     9      180.000000       -0.454905         4
        55        54        56        67     9        0.000000        0.347477         1
        55        54        56        67     9      180.000000       13.612873         2
        55        54        56        67     9        0.000000        0.132493         3
        55        54        56        67     9      180.000000       -0.441658         4
        55        57        58        56     9        0.000000        0.117351         1
        55        57        58        56     9      180.000000       16.443744         2
        55        57        58        56     9        0.000000       -7.069204         3
        55        57        58        56     9      180.000000       -0.082793         4
        55        57        58        59     9        0.000000        1.048795         1
        55        57        58        59     9      180.000000        6.853843         2
        55        57        58        59     9        0.000000        0.060270         3
        55        57        58        59     9      180.000000        0.210743         4
        55        57        62        61     9        0.000000        0.057510         1
        55        57        62        61     9      180.000000       12.645094         2
        55        57        62        61     9        0.000000       -0.251191         3
        55        57        62        61     9      180.000000       -0.327504         4
        55        57        62        66     9        0.000000       -0.257256         1
        55        57        62        66     9      180.000000       10.077255         2
        55        57        62        66     9        0.000000       -0.288306         3
        55        57        62        66     9      180.000000        0.005743         4
        56        54        55        57     9        0.000000       -0.159209         1
        56        54        55        57     9      180.000000       30.065292         2
        56        54        55        57     9        0.000000       -4.755462         3
        56        54        55        57     9      180.000000        0.511946         4
        56        58        57        62     9        0.000000        0.116129         1
        56        58        57        62     9      180.000000        8.860340         2
        56        58        57        62     9        0.000000       -1.181358         3
        56        58        57        62     9      180.000000        0.060581         4
        56        58        59        60     9        0.000000        0.046748         1
        56        58        59        60     9      180.000000        7.817913         2
        56        58        59        60     9        0.000000        0.008798         3
        56        58        59        60     9      180.000000       -0.070194         4
        56        58        59        63     9        0.000000       -0.369256         1
        56        58        59        63     9      180.000000        4.888557         2
        56        58        59        63     9        0.000000        0.199203         3
        56        58        59        63     9      180.000000        0.004996         4
        57        58        56        67     9        0.000000        1.142328         1
        57        58        56        67     9      180.000000        5.850482         2
        57        58        56        67     9        0.000000        0.349721         3
        57        58        56        67     9      180.000000        0.092011         4
        57        58        59        60     9        0.000000       -0.016938         1
        57        58        59        60     9      180.000000       11.027776         2
        57        58        59        60     9        0.000000       -0.492107         3
        57        58        59        60     9      180.000000       -0.154604         4
        57        58        59        63     9        0.000000        0.090706         1
        57        58        59        63     9      180.000000        5.509958         2
        57        58        59        63     9        0.000000        0.231055         3
        57        58        59        63     9      180.000000        0.017957         4
        57        62        61        60     9        0.000000       -0.254030         1
        57        62        61        60     9      180.000000       21.022889         2
        57        62        61        60     9        0.000000       -1.222297         3
        57        62        61        60     9      180.000000       -0.505610         4
        57        62        61        65     9        0.000000        0.368992         1
        57        62        61        65     9      180.000000       24.002361         2
        57        62        61        65     9        0.000000        0.609716         3
        57        62        61        65     9      180.000000       -1.211481         4
        58        57        62        61     9        0.000000       -0.096681         1
        58        57        62        61     9      180.000000       15.208988         2
        58        57        62        61     9        0.000000       -0.783611         3
        58        57        62        61     9      180.000000       -0.361906         4
        58        57        62        66     9        0.000000       -0.011335         1
        58        57        62        66     9      180.000000       10.958682         2
        58        57        62        66     9        0.000000       -0.174599         3
        58        57        62        66     9      180.000000       -0.114774         4
        58        59        60        61     9        0.000000       -0.263489         1
        58        59        60        61     9      180.000000       27.193618         2
        58        59        60        61     9        0.000000       -1.327390         3
        58        59        60        61     9      180.000000       -0.864644         4
        58        59        60        64     9        0.000000        0.108335         1
        58        59        60        64     9      180.000000       21.479558         2
        58        59        60        64     9        0.000000       -0.267160         3
        58        59        60        64     9      180.000000       -0.359434         4
        59        58        56        67     9        0.000000        0.046671         1
        59        58        56        67     9      180.000000        3.735235         2
        59        58        56        67     9        0.000000        0.269748         3
        59        58        56        67     9      180.000000        0.002982         4
        59        58        57        62     9        0.000000        0.651713         1
        59        58        57        62     9      180.000000        6.989462         2
        59        58        57        62     9        0.000000       -0.008177         3
        59        58        57        62     9      180.000000        0.099027         4
        59        60        61        62     9        0.000000        0.022727         1
        59        60        61        62     9      180.000000       14.700076         2
        59        60        61        62     9        0.000000       -1.008106         3
        59        60        61        62     9      180.000000       -0.271313         4
        59        60        61        65     9        0.000000        0.482545         1
        59        60        61        65     9      180.000000       14.836556         2
        59        60        61        65     9        0.000000        0.146857         3
        59        60        61        65     9      180.000000       -0.414930         4
        60        61        62        66     9        0.000000        0.129218         1
        60        61        62        66     9      180.000000       15.017281         2
        60        61        62        66     9        0.000000       -0.416159         3
        60        61        62        66     9      180.000000        0.033762         4
        61        60        59        63     9        0.000000        0.106570         1
        61        60        59        63     9      180.000000       17.205031         2
        61        60        59        63     9        0.000000       -0.274820         3
        61        60        59        63     9      180.000000        0.043456         4
        62        61        60        64     9        0.000000       -0.061817         1
        62        61        60        64     9      180.000000       11.969485         2
        62        61        60        64     9        0.000000       -0.522920         3
        62        61        60        64     9      180.000000        0.020294         4
        63        59        60        64     9        0.000000       -0.138898         1
        63        59        60        64     9      180.000000       13.648297         2
        63        59        60        64     9        0.000000       -0.757979         3
        63        59        60        64     9      180.000000        0.449400         4
        64        60        61        65     9        0.000000        0.055373         1
        64        60        61        65     9      180.000000       11.624404         2
        64        60        61        65     9        0.000000       -0.039514         3
        64        60        61        65     9      180.000000        0.059259         4
        65        61        62        66     9        0.000000        0.233871         1
        65        61        62        66     9      180.000000       15.069222         2
        65        61        62        66     9        0.000000       -0.048359         3
        65        61        62        66     9      180.000000        0.236351         4

[ dihedrals ] ; impropers
;       ai        aj        ak        al funct           phase               k        pn
         1         2         4        54     4      180.000000       13.338092         2
         1         4        54         2     4      180.000000       13.338092         2
         1        54         2         4     4      180.000000       13.338092         2
        11        10        12        13     4      180.000000       14.088156         2
        11        12        13        10     4      180.000000       14.088156         2
        11        13        10        12     4      180.000000       14.088156         2
        35         7        36        37     4      180.000000       15.867169         2
        35        36        37         7     4      180.000000       15.867169         2
        35        37         7        36     4      180.000000       15.867169         2

[ pairs ]
;       ai        aj funct
         1         5     1
         1         9     1
         1        17     1
         1        57     1
         1        58     1
         1        67     1
         2         6     1
         2         8     1
         2        10     1
         2        45     1
         2        46     1
         2        53     1
         2        55     1
         2        56     1
         3         4     1
         3         7     1
         3        11     1
         3        18     1
         3        40     1
         3        41     1
         3        43     1
         3        44     1
         3        54     1
         4        16     1
         4        55     1
         4        56     1
         5         8     1
         5        12     1
         5        13     1
         5        16     1
         5        35     1
         5        42     1
         5        45     1
         5        46     1
         6         9     1
         6        11     1
         6        17     1
         6        18     1
         6        36     1
         6        37     1
         6        43     1
         6        44     1
         7        10     1
         7        38     1
         7        39     1
         7        45     1
         7        46     1
         7        53     1
         8        17     1
         8        36     1
         8        37     1
         8        40     1
         8        41     1
         9        10     1
         9        16     1
         9        35     1
         9        42     1
         9        53     1
        10        14     1
        10        15     1
        10        17     1
        10        40     1
        10        41     1
        11        19     1
        11        20     1
        11        53     1
        12        18     1
        12        21     1
        12        24     1
        13        14     1
        13        15     1
        13        18     1
        14        21     1
        14        23     1
        14        30     1
        14        31     1
        15        22     1
        15        24     1
        15        26     1
        15        27     1
        16        17     1
        16        54     1
        17        45     1
        17        46     1
        17        53     1
        18        53     1
        19        22     1
        19        26     1
        19        27     1
        19        28     1
        19        29     1
        20        23     1
        20        25     1
        20        30     1
        20        31     1
        21        24     1
        21        28     1
        21        29     1
        21        32     1
        21        33     1
        21        34     1
        22        30     1
        22        31     1
        23        26     1
        23        27     1
        23        32     1
        23        33     1
        23        34     1
        24        25     1
        25        26     1
        25        27     1
        25        28     1
        25        29     1
        28        30     1
        28        31     1
        29        30     1
        29        31     1
        35        40     1
        35        41     1
        35        43     1
        35        44     1
        35        47     1
        35        48     1
        35        49     1
        35        50     1
        35        51     1
        35        52     1
        36        38     1
        36        39     1
        36        42     1
        37        42     1
        38        50     1
        38        51     1
        38        52     1
        39        47     1
        39        48     1
        39        49     1
        40        42     1
        40        53     1
        41        42     1
        41        53     1
        42        43     1
        42        44     1
        43        45     1
        43        46     1
        44        45     1
        44        46     1
        54        59     1
        54        62     1
        55        59     1
        55        61     1
        55        66     1
        55        67     1
        56        60     1
        56        62     1
        56        63     1
        57        60     1
        57        63     1
        57        65     1
        57        67     1
        58        61     1
        58        64     1
        58        66     1
        59        62     1
        59        65     1
        59        67     1
        60        66     1
        61        63     1
        62        64     1
        63        64     1
        64        65     1
        65        66     1
