; ITP file created by ByteFF-ML, 2025-12-06 08:03:43.547258

[ atomtypes ]
;name           bonded.type        at.num        mass        charge   ptype           sigma         epsilon
 c0bf                                   6      0.0000       0.00000       A     3.31474e-01     4.13364e-01
 n1bf                                   7      0.0000       0.00000       A     3.26756e-01     4.87676e-01
 c2bf                                   6      0.0000       0.00000       A     3.39858e-01     4.47798e-01
 o3bf                                   8      0.0000       0.00000       A     3.04902e-01     6.10074e-01
 c4bf                                   6      0.0000       0.00000       A     3.39957e-01     4.49241e-01
 c5bf                                   6      0.0000       0.00000       A     3.39695e-01     4.50020e-01
 c6bf                                   6      0.0000       0.00000       A     3.39807e-01     4.51065e-01
 c7bf                                   6      0.0000       0.00000       A     3.39783e-01     4.50599e-01
 c8bf                                   6      0.0000       0.00000       A     3.39769e-01     4.51274e-01
 n9bf                                   7      0.0000       0.00000       A     3.26602e-01     4.88281e-01
 c10bf                                  6      0.0000       0.00000       A     3.31258e-01     4.13621e-01
 c11bf                                  6      0.0000       0.00000       A     3.31371e-01     4.12927e-01
 o12bf                                  8      0.0000       0.00000       A     3.04582e-01     6.10219e-01
 n13bf                                  7      0.0000       0.00000       A     3.38377e-01     3.93517e-01
 s14bf                                 16      0.0000       0.00000       A     3.53468e-01     1.17897e+00
 h15bf                                  1      0.0000       0.00000       A     1.10551e-01     4.07716e-02
 h16bf                                  1      0.0000       0.00000       A     2.42166e-01     8.63681e-02
 h17bf                                  1      0.0000       0.00000       A     1.10612e-01     4.02241e-02
 c18bf                                  6      0.0000       0.00000       A     3.31347e-01     4.13267e-01
 c19bf                                  6      0.0000       0.00000       A     3.31421e-01     4.13824e-01
 c20bf                                  6      0.0000       0.00000       A     3.39969e-01     4.50893e-01
 n21bf                                  7      0.0000       0.00000       A     3.36930e-01     3.57427e-01
 c22bf                                  6      0.0000       0.00000       A     3.39827e-01     4.51767e-01
 c23bf                                  6      0.0000       0.00000       A     3.39882e-01     4.51317e-01
 c24bf                                  6      0.0000       0.00000       A     3.39758e-01     4.50040e-01
 h25bf                                  1      0.0000       0.00000       A     2.42170e-01     8.71342e-02
 h26bf                                  1      0.0000       0.00000       A     2.42170e-01     8.71342e-02
 h27bf                                  1      0.0000       0.00000       A     2.42257e-01     8.79530e-02
 h28bf                                  1      0.0000       0.00000       A     2.42257e-01     8.79530e-02
 h29bf                                  1      0.0000       0.00000       A     2.59883e-01     8.84270e-02
 h30bf                                  1      0.0000       0.00000       A     2.59883e-01     8.84270e-02
 h31bf                                  1      0.0000       0.00000       A     2.41989e-01     8.72555e-02
 h32bf                                  1      0.0000       0.00000       A     2.41989e-01     8.72555e-02
 h33bf                                  1      0.0000       0.00000       A     2.41989e-01     8.72555e-02
 c34bf                                  6      0.0000       0.00000       A     3.31656e-01     4.11194e-01
 o35bf                                  8      0.0000       0.00000       A     3.04848e-01     6.12895e-01
 n36bf                                  7      0.0000       0.00000       A     3.18436e-01     6.83644e-01
 c37bf                                  6      0.0000       0.00000       A     3.39787e-01     4.50128e-01
 c38bf                                  6      0.0000       0.00000       A     3.39787e-01     4.50128e-01
 h39bf                                  1      0.0000       0.00000       A     2.59758e-01     8.65469e-02
 h40bf                                  1      0.0000       0.00000       A     2.59758e-01     8.65469e-02
 h41bf                                  1      0.0000       0.00000       A     2.59710e-01     8.69571e-02
 h42bf                                  1      0.0000       0.00000       A     2.59950e-01     8.71566e-02
 h43bf                                  1      0.0000       0.00000       A     2.59950e-01     8.71566e-02
 h44bf                                  1      0.0000       0.00000       A     2.59873e-01     8.66777e-02
 h45bf                                  1      0.0000       0.00000       A     2.59873e-01     8.66777e-02
 h46bf                                  1      0.0000       0.00000       A     2.42033e-01     8.76162e-02
 h47bf                                  1      0.0000       0.00000       A     2.42033e-01     8.76162e-02
 h48bf                                  1      0.0000       0.00000       A     2.42033e-01     8.76162e-02
 h49bf                                  1      0.0000       0.00000       A     2.42033e-01     8.76162e-02
 h50bf                                  1      0.0000       0.00000       A     2.42033e-01     8.76162e-02
 h51bf                                  1      0.0000       0.00000       A     2.42033e-01     8.76162e-02
 h52bf                                  1      0.0000       0.00000       A     2.42061e-01     8.64671e-02
 c53bf                                  6      0.0000       0.00000       A     3.31563e-01     4.14509e-01
 o54bf                                  8      0.0000       0.00000       A     3.15736e-01     3.02276e-01
 c55bf                                  6      0.0000       0.00000       A     3.31483e-01     4.13023e-01
 c56bf                                  6      0.0000       0.00000       A     3.31640e-01     4.13478e-01
 c57bf                                  6      0.0000       0.00000       A     3.31653e-01     4.12969e-01
 c58bf                                  6      0.0000       0.00000       A     3.31513e-01     4.13696e-01
 c59bf                                  6      0.0000       0.00000       A     3.31507e-01     4.12475e-01
 c60bf                                  6      0.0000       0.00000       A     3.31510e-01     4.12686e-01
 c61bf                                  6      0.0000       0.00000       A     3.31407e-01     4.12713e-01
 h62bf                                  1      0.0000       0.00000       A     2.62569e-01     6.69232e-02
 h63bf                                  1      0.0000       0.00000       A     2.62494e-01     6.72839e-02
 cl64bf                                17      0.0000       0.00000       A     3.46715e-01     1.10474e+00
 h65bf                                  1      0.0000       0.00000       A     2.62421e-01     6.72807e-02
 h66bf                                  1      0.0000       0.00000       A     2.62901e-01     6.69040e-02

[ moleculetype ]
;name             nrexcl
 8c                    3

[ atoms ]
;       nr            type      resi   res      atom      cgnr      charge          mass ; qtot
         1            c0bf         1   UNL        c0         1     0.63916       12.0110 ; qtot    0.639
         2            n1bf         1   UNL        n1         2    -0.49528       14.0070 ; qtot    0.144
         3            c2bf         1   UNL        c2         3     0.09607       12.0110 ; qtot    0.240
         4            o3bf         1   UNL        o3         4    -0.58463       15.9990 ; qtot   -0.345
         5            c4bf         1   UNL        c4         5     0.09861       12.0110 ; qtot   -0.246
         6            c5bf         1   UNL        c5         6    -0.07596       12.0110 ; qtot   -0.322
         7            c6bf         1   UNL        c6         7    -0.13491       12.0110 ; qtot   -0.457
         8            c7bf         1   UNL        c7         8    -0.06729       12.0110 ; qtot   -0.524
         9            c8bf         1   UNL        c8         9    -0.08773       12.0110 ; qtot   -0.612
        10            n9bf         1   UNL        n9        10    -0.49009       14.0070 ; qtot   -1.102
        11           c10bf         1   UNL       c10        11     0.53549       12.0110 ; qtot   -0.567
        12           c11bf         1   UNL       c11        12     0.38153       12.0110 ; qtot   -0.185
        13           o12bf         1   UNL       o12        13    -0.58023       15.9990 ; qtot   -0.765
        14           n13bf         1   UNL       n13        14    -0.61219       14.0070 ; qtot   -1.377
        15           s14bf         1   UNL       s14        15     0.02030       32.0670 ; qtot   -1.357
        16           h15bf         1   UNL       h15        16     0.32958        1.0080 ; qtot   -1.028
        17           h16bf         1   UNL       h16        17     0.07674        1.0080 ; qtot   -0.951
        18           h17bf         1   UNL       h17        18     0.34007        1.0080 ; qtot   -0.611
        19           c18bf         1   UNL       c18        19     0.28744       12.0110 ; qtot   -0.323
        20           c19bf         1   UNL       c19        20    -0.23576       12.0110 ; qtot   -0.559
        21           c20bf         1   UNL       c20        21     0.24225       12.0110 ; qtot   -0.317
        22           n21bf         1   UNL       n21        22    -0.71279       14.0070 ; qtot   -1.030
        23           c22bf         1   UNL       c22        23     0.15975       12.0110 ; qtot   -0.870
        24           c23bf         1   UNL       c23        24    -0.11333       12.0110 ; qtot   -0.983
        25           c24bf         1   UNL       c24        25     0.14641       12.0110 ; qtot   -0.837
        26           h25bf         1   UNL       h25        26     0.05577        1.0080 ; qtot   -0.781
        27           h26bf         1   UNL       h26        27     0.05577        1.0080 ; qtot   -0.725
        28           h27bf         1   UNL       h27        28     0.04433        1.0080 ; qtot   -0.681
        29           h28bf         1   UNL       h28        29     0.04433        1.0080 ; qtot   -0.637
        30           h29bf         1   UNL       h29        30     0.06561        1.0080 ; qtot   -0.571
        31           h30bf         1   UNL       h30        31     0.06561        1.0080 ; qtot   -0.505
        32           h31bf         1   UNL       h31        32     0.03413        1.0080 ; qtot   -0.471
        33           h32bf         1   UNL       h32        33     0.03413        1.0080 ; qtot   -0.437
        34           h33bf         1   UNL       h33        34     0.03413        1.0080 ; qtot   -0.403
        35           c34bf         1   UNL       c34        35     0.60518       12.0110 ; qtot    0.202
        36           o35bf         1   UNL       o35        36    -0.60574       15.9990 ; qtot   -0.404
        37           n36bf         1   UNL       n36        37    -0.42066       14.0070 ; qtot   -0.824
        38           c37bf         1   UNL       c37        38     0.08301       12.0110 ; qtot   -0.741
        39           c38bf         1   UNL       c38        39     0.08301       12.0110 ; qtot   -0.658
        40           h39bf         1   UNL       h39        40     0.06130        1.0080 ; qtot   -0.597
        41           h40bf         1   UNL       h40        41     0.06130        1.0080 ; qtot   -0.536
        42           h41bf         1   UNL       h41        42     0.06316        1.0080 ; qtot   -0.472
        43           h42bf         1   UNL       h42        43     0.05027        1.0080 ; qtot   -0.422
        44           h43bf         1   UNL       h43        44     0.05027        1.0080 ; qtot   -0.372
        45           h44bf         1   UNL       h44        45     0.05508        1.0080 ; qtot   -0.317
        46           h45bf         1   UNL       h45        46     0.05508        1.0080 ; qtot   -0.262
        47           h46bf         1   UNL       h46        47     0.04477        1.0080 ; qtot   -0.217
        48           h47bf         1   UNL       h47        48     0.04477        1.0080 ; qtot   -0.172
        49           h48bf         1   UNL       h48        49     0.04477        1.0080 ; qtot   -0.127
        50           h49bf         1   UNL       h49        50     0.04477        1.0080 ; qtot   -0.083
        51           h50bf         1   UNL       h50        51     0.04477        1.0080 ; qtot   -0.038
        52           h51bf         1   UNL       h51        52     0.04477        1.0080 ; qtot    0.007
        53           h52bf         1   UNL       h52        53     0.07783        1.0080 ; qtot    0.085
        54           c53bf         1   UNL       c53        54    -0.04044       12.0110 ; qtot    0.044
        55           o54bf         1   UNL       o54        55    -0.16230       15.9990 ; qtot   -0.118
        56           c55bf         1   UNL       c55        56    -0.16186       12.0110 ; qtot   -0.280
        57           c56bf         1   UNL       c56        57     0.08363       12.0110 ; qtot   -0.196
        58           c57bf         1   UNL       c57        58    -0.12097       12.0110 ; qtot   -0.317
        59           c58bf         1   UNL       c58        59    -0.04017       12.0110 ; qtot   -0.357
        60           c59bf         1   UNL       c59        60    -0.12115       12.0110 ; qtot   -0.479
        61           c60bf         1   UNL       c60        61     0.13825       12.0110 ; qtot   -0.340
        62           c61bf         1   UNL       c61        62    -0.08762       12.0110 ; qtot   -0.428
        63           h62bf         1   UNL       h62        63     0.12804        1.0080 ; qtot   -0.300
        64           h63bf         1   UNL       h63        64     0.13421        1.0080 ; qtot   -0.166
        65          cl64bf         1   UNL      cl64        65    -0.20856       35.4530 ; qtot   -0.374
        66           h65bf         1   UNL       h65        66     0.15148        1.0080 ; qtot   -0.223
        67           h66bf         1   UNL       h66        67     0.22273        1.0080 ; qtot   -0.000

[ bonds ]
;       ai        aj funct               r               k
         1         2     1        0.136579   304405.101758
         1         4     1        0.123281   592628.818457
         1        54     1        0.148490   193452.349976
         2         3     1        0.146364   190519.872632
         2        16     1        0.101324   414676.025488
         3         5     1        0.154765   156579.636963
         3         9     1        0.153887   172932.401563
         3        17     1        0.109308   301508.631738
         5         6     1        0.153891   171747.952124
         5        10     1        0.146252   191021.906665
         5        53     1        0.109291   301684.863330
         6         7     1        0.154579   164893.255688
         6        40     1        0.109326   300596.548340
         6        41     1        0.109326   300596.548340
         7         8     1        0.154661   163666.440186
         7        35     1        0.153191   158389.860498
         7        42     1        0.109414   302100.760693
         8         9     1        0.153693   181135.763818
         8        43     1        0.109447   297470.142188
         8        44     1        0.109447   297470.142188
         9        45     1        0.109409   298760.123730
         9        46     1        0.109409   298760.123730
        10        11     1        0.136095   315450.182471
        10        18     1        0.101409   412617.504639
        11        12     1        0.149761   181928.231396
        11        13     1        0.123205   595504.348047
        12        14     1        0.130744   394780.497705
        12        15     1        0.175753   114860.631787
        14        19     1        0.137483   250388.573877
        15        20     1        0.173418   163411.809668
        19        20     1        0.137232   358668.241504
        19        24     1        0.150284   209899.921094
        20        21     1        0.150545   205958.217187
        21        22     1        0.146468   191918.016602
        21        26     1        0.110015   279945.275342
        21        27     1        0.110015   279945.275342
        22        23     1        0.146781   189560.941406
        22        25     1        0.146077   206296.839258
        23        24     1        0.153813   178870.826514
        23        28     1        0.109814   285833.060205
        23        29     1        0.109814   285833.060205
        24        30     1        0.109539   296322.146973
        24        31     1        0.109539   296322.146973
        25        32     1        0.109765   288786.145996
        25        33     1        0.109765   288786.145996
        25        34     1        0.109765   288786.145996
        35        36     1        0.123512   586720.450684
        35        37     1        0.137606   276714.984229
        37        38     1        0.145947   208517.507983
        37        39     1        0.145947   208517.507983
        38        47     1        0.109324   300806.693213
        38        48     1        0.109324   300806.693213
        38        49     1        0.109324   300806.693213
        39        50     1        0.109324   300806.693213
        39        51     1        0.109324   300806.693213
        39        52     1        0.109324   300806.693213
        54        55     1        0.138427   207828.274170
        54        56     1        0.136619   393171.302295
        55        57     1        0.136859   237266.764355
        56        58     1        0.143959   246844.099707
        56        67     1        0.108097   338392.108643
        57        58     1        0.141218   261606.489746
        57        62     1        0.139193   318582.308936
        58        59     1        0.140722   300671.014551
        59        60     1        0.139233   322533.819092
        59        63     1        0.108576   321205.404199
        60        61     1        0.140812   278841.663623
        60        64     1        0.108438   325528.632520
        61        62     1        0.139515   304215.054590
        61        65     1        0.175859   148208.508667
        62        66     1        0.108378   328154.230420

[ angles ]
;       ai        aj        ak funct           theta             cth
         1         2         3     1      122.774948      525.194851
         1         2        16     1      117.809448      422.857439
         1        54        55     1      116.958786      507.783713
         1        54        56     1      131.640213      413.940135
         2         1         4     1      124.025063      608.994811
         2         1        54     1      114.624832      469.213134
         2         3         5     1      111.214989      548.279823
         2         3         9     1      111.644241      628.415974
         2         3        17     1      106.357544      527.034959
         3         2        16     1      116.973129      404.351845
         3         5         6     1      110.949730      561.818322
         3         5        10     1      111.211868      548.351327
         3         5        53     1      107.760971      470.699298
         3         9         8     1      111.604088      623.368373
         3         9        45     1      108.980911      497.120598
         3         9        46     1      108.980911      497.120598
         4         1        54     1      121.313332      563.582744
         5         3         9     1      110.839981      554.996977
         5         3        17     1      107.687881      472.872091
         5         6         7     1      111.940201      596.811376
         5         6        40     1      109.081688      493.138117
         5         6        41     1      109.081688      493.138117
         5        10        11     1      123.287148      523.560284
         5        10        18     1      117.982994      388.331235
         6         5        10     1      111.415794      612.989071
         6         5        53     1      108.670311      471.698086
         6         7         8     1      110.560959      569.917990
         6         7        35     1      110.802452      642.130488
         6         7        42     1      107.640671      495.211858
         7         6        40     1      109.789185      465.155383
         7         6        41     1      109.789185      465.155383
         7         8         9     1      111.600388      627.192045
         7         8        43     1      109.459435      468.787845
         7         8        44     1      109.459435      468.787845
         7        35        36     1      120.367775      453.866799
         7        35        37     1      118.348633      449.080890
         8         7        35     1      111.026161      653.509377
         8         7        42     1      107.798851      493.236244
         8         9        45     1      109.995155      502.450863
         8         9        46     1      109.995140      502.450863
         9         3        17     1      108.814804      471.682157
         9         8        43     1      109.710251      513.187717
         9         8        44     1      109.710251      513.187717
        10         5        53     1      106.367630      527.615386
        10        11        12     1      114.245560      430.111414
        10        11        13     1      124.890869      615.174089
        11        10        18     1      117.270615      420.964947
        11        12        14     1      124.340652      359.309363
        11        12        15     1      120.844772      468.365589
        12        11        13     1      120.964073      537.680773
        12        14        19     1      111.406593      328.705787
        12        15        20     1       88.551132      167.360000
        14        12        15     1      114.891418      167.360000
        14        19        20     1      115.272217      312.892188
        14        19        24     1      122.848999      461.667684
        15        20        19     1      110.263878      167.360000
        15        20        21     1      125.788002      401.332369
        19        20        21     1      123.996292      562.620314
        19        24        23     1      109.429955      644.587349
        19        24        30     1      109.759384      484.571854
        19        24        31     1      109.759384      484.571854
        20        19        24     1      121.676254      406.530862
        20        21        22     1      110.200546      563.933816
        20        21        26     1      110.205734      462.983196
        20        21        27     1      110.205734      462.983196
        21        22        23     1      111.045578      613.756014
        21        22        25     1      111.203835      630.245325
        22        21        26     1      109.551048      459.134690
        22        21        27     1      109.551048      459.134690
        22        23        24     1      112.270889      625.644432
        22        23        28     1      109.041969      476.770682
        22        23        29     1      109.041969      476.770682
        22        25        32     1      110.858498      481.423224
        22        25        33     1      110.858498      481.423224
        22        25        34     1      110.858498      481.423224
        23        22        25     1      112.192528      649.121399
        23        24        30     1      110.261795      502.853519
        23        24        31     1      110.261795      502.853519
        24        23        28     1      109.631447      493.664916
        24        23        29     1      109.631447      493.664916
        26        21        27     1      106.585083      354.341693
        28        23        29     1      107.114723      348.812845
        30        24        31     1      106.901878      363.316136
        32        25        33     1      108.062943      347.504005
        32        25        34     1      108.062943      347.504005
        33        25        34     1      108.062943      347.504005
        35         7        42     1      108.212730      515.178845
        35        37        38     1      122.129654      505.902714
        35        37        39     1      122.129654      505.902714
        36        35        37     1      121.081711      636.267423
        37        38        47     1      110.326584      477.859329
        37        38        48     1      110.326584      477.859265
        37        38        49     1      110.326584      477.859265
        37        39        50     1      110.326584      477.859265
        37        39        51     1      110.326584      477.859265
        37        39        52     1      110.326584      477.859265
        38        37        39     1      114.947632      573.331217
        40         6        41     1      107.084274      355.159487
        43         8        44     1      106.645180      359.821255
        45         9        46     1      106.834862      356.409369
        47        38        48     1      108.724693      349.793087
        47        38        49     1      108.724693      349.793087
        48        38        49     1      108.724693      349.793087
        50        39        51     1      108.724693      349.793087
        50        39        52     1      108.724693      349.793087
        51        39        52     1      108.724693      349.793087
        54        55        57     1      106.339073      588.548461
        54        56        58     1      106.434669      362.699159
        54        56        67     1      125.596901      363.294270
        55        54        56     1      111.388145      167.360000
        55        57        58     1      110.314102      268.596954
        55        57        62     1      125.811180      508.561925
        56        58        57     1      105.472206      419.299385
        56        58        59     1      135.815781      465.151808
        57        58        59     1      118.794044      699.291668
        57        62        61     1      115.598938      732.365672
        57        62        66     1      122.222672      443.374208
        58        56        67     1      128.100189      384.517363
        58        57        62     1      123.847549      578.971598
        58        59        60     1      118.761124      721.457049
        58        59        63     1      121.077782      445.063998
        59        60        61     1      120.251526      586.738965
        59        60        64     1      120.677078      423.842533
        60        59        63     1      120.096046      436.948943
        60        61        62     1      122.524063      584.451542
        60        61        65     1      118.710617      400.059823
        61        60        64     1      119.300011      436.448607
        61        62        66     1      122.090981      420.128543
        62        61        65     1      118.781784      334.554583

[ dihedrals ] ; propers for gromacs 4.5 or higher, use funct 9
;       ai        aj        ak        al funct           phase               k        pn
         1         2         3         5     9        0.000000        1.096816         1
         1         2         3         5     9      180.000000       -0.455663         2
         1         2         3         5     9        0.000000        0.365839         3
         1         2         3         5     9      180.000000        0.192667         4
         1         2         3         9     9        0.000000       -0.027776         1
         1         2         3         9     9      180.000000       -0.203281         2
         1         2         3         9     9        0.000000        0.430805         3
         1         2         3         9     9      180.000000        0.038532         4
         1         2         3        17     9        0.000000       -0.047144         1
         1         2         3        17     9      180.000000        0.103614         2
         1         2         3        17     9        0.000000        0.246941         3
         1         2         3        17     9      180.000000        0.164682         4
         1        54        55        57     9        0.000000        0.972090         1
         1        54        55        57     9      180.000000        7.379779         2
         1        54        55        57     9        0.000000       -0.054589         3
         1        54        55        57     9      180.000000       -0.012171         4
         1        54        56        58     9        0.000000        0.414488         1
         1        54        56        58     9      180.000000       16.935672         2
         1        54        56        58     9        0.000000       -0.701690         3
         1        54        56        58     9      180.000000       -1.007668         4
         1        54        56        67     9        0.000000        0.075322         1
         1        54        56        67     9      180.000000       11.788898         2
         1        54        56        67     9        0.000000       -0.145876         3
         1        54        56        67     9      180.000000       -0.093766         4
         2         1        54        55     9        0.000000        2.474034         1
         2         1        54        55     9      180.000000        4.025349         2
         2         1        54        55     9        0.000000        0.201330         3
         2         1        54        55     9      180.000000       -0.452922         4
         2         1        54        56     9        0.000000       -0.162287         1
         2         1        54        56     9      180.000000        2.543553         2
         2         1        54        56     9        0.000000        0.601041         3
         2         1        54        56     9      180.000000       -0.551030         4
         2         3         5         6     9        0.000000       -0.699066         1
         2         3         5         6     9      180.000000        0.062616         2
         2         3         5         6     9        0.000000        0.081552         3
         2         3         5         6     9      180.000000        0.281957         4
         2         3         5        10     9        0.000000        2.543536         1
         2         3         5        10     9      180.000000        0.077924         2
         2         3         5        10     9        0.000000       -0.497150         3
         2         3         5        10     9      180.000000        0.072536         4
         2         3         5        53     9        0.000000       -0.483695         1
         2         3         5        53     9      180.000000        0.047899         2
         2         3         5        53     9        0.000000        0.357791         3
         2         3         5        53     9      180.000000       -0.018352         4
         2         3         9         8     9        0.000000       -0.388628         1
         2         3         9         8     9      180.000000        0.595165         2
         2         3         9         8     9        0.000000        0.155179         3
         2         3         9         8     9      180.000000        0.158878         4
         2         3         9        45     9        0.000000        0.032717         1
         2         3         9        45     9      180.000000        0.091396         2
         2         3         9        45     9        0.000000        0.366271         3
         2         3         9        45     9      180.000000       -0.074937         4
         2         3         9        46     9        0.000000        0.032717         1
         2         3         9        46     9      180.000000        0.091396         2
         2         3         9        46     9        0.000000        0.366271         3
         2         3         9        46     9      180.000000       -0.074937         4
         3         2         1         4     9        0.000000       -0.845135         1
         3         2         1         4     9      180.000000        9.076155         2
         3         2         1         4     9        0.000000        0.511649         3
         3         2         1         4     9      180.000000       -1.074716         4
         3         2         1        54     9        0.000000        2.097417         1
         3         2         1        54     9      180.000000       10.907772         2
         3         2         1        54     9        0.000000        0.939117         3
         3         2         1        54     9      180.000000       -0.154285         4
         3         5         6         7     9        0.000000        3.521476         1
         3         5         6         7     9      180.000000       -1.784039         2
         3         5         6         7     9        0.000000       -0.101126         3
         3         5         6         7     9      180.000000        0.004999         4
         3         5         6        40     9        0.000000       -0.093291         1
         3         5         6        40     9      180.000000        0.065534         2
         3         5         6        40     9        0.000000        0.165300         3
         3         5         6        40     9      180.000000        0.047083         4
         3         5         6        41     9        0.000000       -0.093291         1
         3         5         6        41     9      180.000000        0.065534         2
         3         5         6        41     9        0.000000        0.165300         3
         3         5         6        41     9      180.000000        0.047083         4
         3         5        10        11     9        0.000000        1.075340         1
         3         5        10        11     9      180.000000       -0.428716         2
         3         5        10        11     9        0.000000        0.342523         3
         3         5        10        11     9      180.000000        0.176028         4
         3         5        10        18     9        0.000000        0.603997         1
         3         5        10        18     9      180.000000       -1.098041         2
         3         5        10        18     9        0.000000        0.540101         3
         3         5        10        18     9      180.000000        0.020767         4
         3         9         8         7     9        0.000000        1.279355         1
         3         9         8         7     9      180.000000       -1.634248         2
         3         9         8         7     9        0.000000        0.188878         3
         3         9         8         7     9      180.000000        0.079353         4
         3         9         8        43     9        0.000000       -0.093981         1
         3         9         8        43     9      180.000000        0.067728         2
         3         9         8        43     9        0.000000        0.233733         3
         3         9         8        43     9      180.000000        0.022488         4
         3         9         8        44     9        0.000000       -0.093981         1
         3         9         8        44     9      180.000000        0.067728         2
         3         9         8        44     9        0.000000        0.233733         3
         3         9         8        44     9      180.000000        0.022488         4
         4         1         2        16     9        0.000000       -0.038645         1
         4         1         2        16     9      180.000000       10.664043         2
         4         1         2        16     9        0.000000       -0.004452         3
         4         1         2        16     9      180.000000       -0.069665         4
         4         1        54        55     9        0.000000       -1.819755         1
         4         1        54        55     9      180.000000        5.597077         2
         4         1        54        55     9        0.000000        0.558809         3
         4         1        54        55     9      180.000000        0.205129         4
         4         1        54        56     9        0.000000        0.870066         1
         4         1        54        56     9      180.000000        3.047081         2
         4         1        54        56     9        0.000000       -0.216098         3
         4         1        54        56     9      180.000000        0.315842         4
         5         3         2        16     9        0.000000        0.756024         1
         5         3         2        16     9      180.000000       -1.134542         2
         5         3         2        16     9        0.000000        0.597739         3
         5         3         2        16     9      180.000000        0.033738         4
         5         3         9         8     9        0.000000        2.727494         1
         5         3         9         8     9      180.000000       -1.648641         2
         5         3         9         8     9        0.000000        0.046834         3
         5         3         9         8     9      180.000000        0.053655         4
         5         3         9        45     9        0.000000       -0.098337         1
         5         3         9        45     9      180.000000        0.061651         2
         5         3         9        45     9        0.000000        0.181598         3
         5         3         9        45     9      180.000000        0.055017         4
         5         3         9        46     9        0.000000       -0.098337         1
         5         3         9        46     9      180.000000        0.061651         2
         5         3         9        46     9        0.000000        0.181598         3
         5         3         9        46     9      180.000000        0.055017         4
         5         6         7         8     9        0.000000        2.165031         1
         5         6         7         8     9      180.000000       -2.097222         2
         5         6         7         8     9        0.000000        0.100591         3
         5         6         7         8     9      180.000000       -0.066916         4
         5         6         7        35     9        0.000000       -0.983937         1
         5         6         7        35     9      180.000000       -0.488697         2
         5         6         7        35     9        0.000000        0.042854         3
         5         6         7        35     9      180.000000        0.043589         4
         5         6         7        42     9        0.000000       -0.730470         1
         5         6         7        42     9      180.000000        0.097424         2
         5         6         7        42     9        0.000000        0.165336         3
         5         6         7        42     9      180.000000        0.052036         4
         5        10        11        12     9        0.000000        1.555928         1
         5        10        11        12     9      180.000000       10.814282         2
         5        10        11        12     9        0.000000        0.661597         3
         5        10        11        12     9      180.000000       -0.283510         4
         5        10        11        13     9        0.000000       -0.697008         1
         5        10        11        13     9      180.000000       10.165090         2
         5        10        11        13     9        0.000000        0.481442         3
         5        10        11        13     9      180.000000       -1.333102         4
         6         5         3         9     9        0.000000        3.419585         1
         6         5         3         9     9      180.000000       -1.639853         2
         6         5         3         9     9        0.000000        0.091448         3
         6         5         3         9     9      180.000000       -0.007868         4
         6         5         3        17     9        0.000000       -0.364918         1
         6         5         3        17     9      180.000000        0.081381         2
         6         5         3        17     9        0.000000        0.302593         3
         6         5         3        17     9      180.000000        0.058883         4
         6         5        10        11     9        0.000000        0.002927         1
         6         5        10        11     9      180.000000       -0.404022         2
         6         5        10        11     9        0.000000        0.371083         3
         6         5        10        11     9      180.000000        0.052955         4
         6         5        10        18     9        0.000000       -0.144735         1
         6         5        10        18     9      180.000000       -0.350990         2
         6         5        10        18     9        0.000000        0.351412         3
         6         5        10        18     9      180.000000       -0.039177         4
         6         7         8         9     9        0.000000        0.883255         1
         6         7         8         9     9      180.000000       -1.399723         2
         6         7         8         9     9        0.000000        0.313351         3
         6         7         8         9     9      180.000000       -0.050724         4
         6         7         8        43     9        0.000000       -0.056826         1
         6         7         8        43     9      180.000000        0.050149         2
         6         7         8        43     9        0.000000        0.270717         3
         6         7         8        43     9      180.000000        0.019384         4
         6         7         8        44     9        0.000000       -0.056826         1
         6         7         8        44     9      180.000000        0.050149         2
         6         7         8        44     9        0.000000        0.270717         3
         6         7         8        44     9      180.000000        0.019384         4
         6         7        35        36     9        0.000000       -0.455386         1
         6         7        35        36     9      180.000000        0.737900         2
         6         7        35        36     9        0.000000        0.287526         3
         6         7        35        36     9      180.000000        0.250951         4
         6         7        35        37     9        0.000000        0.270994         1
         6         7        35        37     9      180.000000        1.080078         2
         6         7        35        37     9        0.000000       -0.027563         3
         6         7        35        37     9      180.000000        0.001527         4
         7         6         5        10     9        0.000000       -0.371142         1
         7         6         5        10     9      180.000000        0.220404         2
         7         6         5        10     9        0.000000        0.058079         3
         7         6         5        10     9      180.000000        0.224988         4
         7         6         5        53     9        0.000000       -0.669148         1
         7         6         5        53     9      180.000000        0.139992         2
         7         6         5        53     9        0.000000        0.154327         3
         7         6         5        53     9      180.000000        0.076148         4
         7         8         9        45     9        0.000000       -0.081149         1
         7         8         9        45     9      180.000000        0.083136         2
         7         8         9        45     9        0.000000        0.213491         3
         7         8         9        45     9      180.000000        0.012123         4
         7         8         9        46     9        0.000000       -0.081149         1
         7         8         9        46     9      180.000000        0.083136         2
         7         8         9        46     9        0.000000        0.213491         3
         7         8         9        46     9      180.000000        0.012123         4
         7        35        37        38     9        0.000000        7.685850         1
         7        35        37        38     9      180.000000       10.413246         2
         7        35        37        38     9        0.000000        0.340038         3
         7        35        37        38     9      180.000000       -0.442447         4
         7        35        37        39     9        0.000000        7.685850         1
         7        35        37        39     9      180.000000       10.413246         2
         7        35        37        39     9        0.000000        0.340038         3
         7        35        37        39     9      180.000000       -0.442447         4
         8         7         6        40     9        0.000000       -0.052172         1
         8         7         6        40     9      180.000000        0.058083         2
         8         7         6        40     9        0.000000        0.229959         3
         8         7         6        40     9      180.000000        0.057798         4
         8         7         6        41     9        0.000000       -0.052172         1
         8         7         6        41     9      180.000000        0.058083         2
         8         7         6        41     9        0.000000        0.229959         3
         8         7         6        41     9      180.000000        0.057798         4
         8         7        35        36     9        0.000000       -0.698289         1
         8         7        35        36     9      180.000000        0.744054         2
         8         7        35        36     9        0.000000        0.336890         3
         8         7        35        36     9      180.000000        0.225666         4
         8         7        35        37     9        0.000000        0.291846         1
         8         7        35        37     9      180.000000        1.098654         2
         8         7        35        37     9        0.000000        0.042828         3
         8         7        35        37     9      180.000000       -0.012816         4
         8         9         3        17     9        0.000000       -0.414269         1
         8         9         3        17     9      180.000000        0.166678         2
         8         9         3        17     9        0.000000        0.249863         3
         8         9         3        17     9      180.000000        0.025516         4
         9         3         2        16     9        0.000000        0.138506         1
         9         3         2        16     9      180.000000       -0.070830         2
         9         3         2        16     9        0.000000        0.402330         3
         9         3         2        16     9      180.000000       -0.038763         4
         9         3         5        10     9        0.000000       -0.423268         1
         9         3         5        10     9      180.000000        0.253125         2
         9         3         5        10     9        0.000000        0.147993         3
         9         3         5        10     9      180.000000        0.205852         4
         9         3         5        53     9        0.000000       -0.383412         1
         9         3         5        53     9      180.000000        0.122740         2
         9         3         5        53     9        0.000000        0.319808         3
         9         3         5        53     9      180.000000        0.046548         4
         9         8         7        35     9        0.000000       -1.214715         1
         9         8         7        35     9      180.000000       -0.026304         2
         9         8         7        35     9        0.000000        0.125444         3
         9         8         7        35     9      180.000000        0.097348         4
         9         8         7        42     9        0.000000       -0.470240         1
         9         8         7        42     9      180.000000        0.119524         2
         9         8         7        42     9        0.000000        0.267326         3
         9         8         7        42     9      180.000000        0.031749         4
        10         5         3        17     9        0.000000       -0.403332         1
        10         5         3        17     9      180.000000        0.014979         2
        10         5         3        17     9        0.000000        0.352761         3
        10         5         3        17     9      180.000000       -0.009171         4
        10         5         6        40     9        0.000000        0.121999         1
        10         5         6        40     9      180.000000        0.128860         2
        10         5         6        40     9        0.000000        0.387587         3
        10         5         6        40     9      180.000000       -0.072829         4
        10         5         6        41     9        0.000000        0.121999         1
        10         5         6        41     9      180.000000        0.128860         2
        10         5         6        41     9        0.000000        0.387587         3
        10         5         6        41     9      180.000000       -0.072829         4
        10        11        12        14     9        0.000000        2.923749         1
        10        11        12        14     9      180.000000        2.022095         2
        10        11        12        14     9        0.000000        0.151149         3
        10        11        12        14     9      180.000000       -0.373995         4
        10        11        12        15     9        0.000000       -0.304414         1
        10        11        12        15     9      180.000000        3.200684         2
        10        11        12        15     9        0.000000        0.463910         3
        10        11        12        15     9      180.000000       -0.514292         4
        11        10         5        53     9        0.000000        0.019529         1
        11        10         5        53     9      180.000000        0.145848         2
        11        10         5        53     9        0.000000        0.215266         3
        11        10         5        53     9      180.000000        0.179578         4
        11        12        14        19     9        0.000000        0.509539         1
        11        12        14        19     9      180.000000       28.889665         2
        11        12        14        19     9        0.000000        0.564950         3
        11        12        14        19     9      180.000000       -0.961131         4
        11        12        15        20     9        0.000000       -1.127037         1
        11        12        15        20     9      180.000000       15.581777         2
        11        12        15        20     9        0.000000       -0.036420         3
        11        12        15        20     9      180.000000       -0.602861         4
        12        11        10        18     9        0.000000       -0.415752         1
        12        11        10        18     9      180.000000        9.010384         2
        12        11        10        18     9        0.000000        0.175298         3
        12        11        10        18     9      180.000000       -0.065606         4
        12        14        19        20     9        0.000000       -0.228535         1
        12        14        19        20     9      180.000000       27.756785         2
        12        14        19        20     9        0.000000       -2.863850         3
        12        14        19        20     9      180.000000       -0.158646         4
        12        14        19        24     9        0.000000        0.109642         1
        12        14        19        24     9      180.000000       22.524852         2
        12        14        19        24     9        0.000000        0.728535         3
        12        14        19        24     9      180.000000       -0.420500         4
        12        15        20        19     9        0.000000        0.019507         1
        12        15        20        19     9      180.000000       29.322726         2
        12        15        20        19     9        0.000000       -6.425576         3
        12        15        20        19     9      180.000000       -0.474428         4
        12        15        20        21     9        0.000000        0.448650         1
        12        15        20        21     9      180.000000       11.835073         2
        12        15        20        21     9        0.000000        0.424426         3
        12        15        20        21     9      180.000000       -0.134990         4
        13        11        10        18     9        0.000000       -0.005332         1
        13        11        10        18     9      180.000000       10.730372         2
        13        11        10        18     9        0.000000       -0.060300         3
        13        11        10        18     9      180.000000       -0.147584         4
        13        11        12        14     9        0.000000       -1.392140         1
        13        11        12        14     9      180.000000        3.582888         2
        13        11        12        14     9        0.000000        0.461599         3
        13        11        12        14     9      180.000000        0.214010         4
        13        11        12        15     9        0.000000        0.210149         1
        13        11        12        15     9      180.000000        4.370762         2
        13        11        12        15     9        0.000000       -0.343613         3
        13        11        12        15     9      180.000000        0.218765         4
        14        12        15        20     9        0.000000       -0.590193         1
        14        12        15        20     9      180.000000       31.322398         2
        14        12        15        20     9        0.000000       -5.851399         3
        14        12        15        20     9      180.000000       -0.585767         4
        14        19        20        15     9        0.000000       -0.800174         1
        14        19        20        15     9      180.000000       28.383673         2
        14        19        20        15     9        0.000000       -5.049933         3
        14        19        20        15     9      180.000000       -1.030530         4
        14        19        20        21     9        0.000000        0.006237         1
        14        19        20        21     9      180.000000       19.786124         2
        14        19        20        21     9        0.000000       -0.767005         3
        14        19        20        21     9      180.000000       -1.000863         4
        14        19        24        23     9        0.000000       -1.761287         1
        14        19        24        23     9      180.000000       -0.518566         2
        14        19        24        23     9        0.000000        0.250165         3
        14        19        24        23     9      180.000000        0.137553         4
        14        19        24        30     9        0.000000        0.061059         1
        14        19        24        30     9      180.000000        0.031081         2
        14        19        24        30     9        0.000000        0.254497         3
        14        19        24        30     9      180.000000       -0.033807         4
        14        19        24        31     9        0.000000        0.061059         1
        14        19        24        31     9      180.000000        0.031081         2
        14        19        24        31     9        0.000000        0.254497         3
        14        19        24        31     9      180.000000       -0.033807         4
        15        12        14        19     9        0.000000       -0.414856         1
        15        12        14        19     9      180.000000       36.017356         2
        15        12        14        19     9        0.000000       -4.165866         3
        15        12        14        19     9      180.000000        0.025250         4
        15        20        19        24     9        0.000000        0.102614         1
        15        20        19        24     9      180.000000       18.114968         2
        15        20        19        24     9        0.000000       -0.791874         3
        15        20        19        24     9      180.000000       -0.971119         4
        15        20        21        22     9        0.000000       -3.606837         1
        15        20        21        22     9      180.000000       -0.362514         2
        15        20        21        22     9        0.000000        0.387711         3
        15        20        21        22     9      180.000000        0.164191         4
        15        20        21        26     9        0.000000        0.050382         1
        15        20        21        26     9      180.000000        0.088073         2
        15        20        21        26     9        0.000000        0.411892         3
        15        20        21        26     9      180.000000       -0.037587         4
        15        20        21        27     9        0.000000        0.050382         1
        15        20        21        27     9      180.000000        0.088073         2
        15        20        21        27     9        0.000000        0.411892         3
        15        20        21        27     9      180.000000       -0.037587         4
        16         2         1        54     9        0.000000        0.090735         1
        16         2         1        54     9      180.000000        9.675514         2
        16         2         1        54     9        0.000000        0.513222         3
        16         2         1        54     9      180.000000        0.189593         4
        16         2         3        17     9        0.000000       -0.835737         1
        16         2         3        17     9      180.000000        0.042868         2
        16         2         3        17     9        0.000000        0.577426         3
        16         2         3        17     9      180.000000        0.177947         4
        17         3         5        53     9        0.000000        0.139011         1
        17         3         5        53     9      180.000000       -0.168210         2
        17         3         5        53     9        0.000000        0.415944         3
        17         3         5        53     9      180.000000       -0.049441         4
        17         3         9        45     9        0.000000        0.036164         1
        17         3         9        45     9      180.000000        0.016042         2
        17         3         9        45     9        0.000000        0.372725         3
        17         3         9        45     9      180.000000        0.010786         4
        17         3         9        46     9        0.000000        0.036164         1
        17         3         9        46     9      180.000000        0.016042         2
        17         3         9        46     9        0.000000        0.372725         3
        17         3         9        46     9      180.000000        0.010786         4
        18        10         5        53     9        0.000000       -0.796801         1
        18        10         5        53     9      180.000000        0.146414         2
        18        10         5        53     9        0.000000        0.563223         3
        18        10         5        53     9      180.000000        0.175350         4
        19        20        21        22     9        0.000000       -3.311658         1
        19        20        21        22     9      180.000000        0.893056         2
        19        20        21        22     9        0.000000       -0.312861         3
        19        20        21        22     9      180.000000        0.089561         4
        19        20        21        26     9        0.000000       -0.010515         1
        19        20        21        26     9      180.000000       -0.166834         2
        19        20        21        26     9        0.000000       -0.357655         3
        19        20        21        26     9      180.000000       -0.002483         4
        19        20        21        27     9        0.000000       -0.010515         1
        19        20        21        27     9      180.000000       -0.166834         2
        19        20        21        27     9        0.000000       -0.357655         3
        19        20        21        27     9      180.000000       -0.002483         4
        19        24        23        22     9        0.000000       -1.384129         1
        19        24        23        22     9      180.000000       -0.653292         2
        19        24        23        22     9        0.000000        0.502380         3
        19        24        23        22     9      180.000000       -0.119672         4
        19        24        23        28     9        0.000000        0.056682         1
        19        24        23        28     9      180.000000        0.029063         2
        19        24        23        28     9        0.000000        0.464816         3
        19        24        23        28     9      180.000000        0.029460         4
        19        24        23        29     9        0.000000        0.056682         1
        19        24        23        29     9      180.000000        0.029063         2
        19        24        23        29     9        0.000000        0.464816         3
        19        24        23        29     9      180.000000        0.029460         4
        20        19        24        23     9        0.000000       -0.581697         1
        20        19        24        23     9      180.000000       -0.178850         2
        20        19        24        23     9        0.000000       -0.539812         3
        20        19        24        23     9      180.000000        0.228285         4
        20        19        24        30     9        0.000000        0.001137         1
        20        19        24        30     9      180.000000       -0.132140         2
        20        19        24        30     9        0.000000       -0.440824         3
        20        19        24        30     9      180.000000        0.030108         4
        20        19        24        31     9        0.000000        0.001137         1
        20        19        24        31     9      180.000000       -0.132140         2
        20        19        24        31     9        0.000000       -0.440824         3
        20        19        24        31     9      180.000000        0.030108         4
        20        21        22        23     9        0.000000        1.757084         1
        20        21        22        23     9      180.000000       -1.262017         2
        20        21        22        23     9        0.000000        0.610032         3
        20        21        22        23     9      180.000000       -0.013762         4
        20        21        22        25     9        0.000000        0.088848         1
        20        21        22        25     9      180.000000        0.098174         2
        20        21        22        25     9        0.000000        0.957104         3
        20        21        22        25     9      180.000000        0.111039         4
        21        20        19        24     9        0.000000        0.173945         1
        21        20        19        24     9      180.000000       16.682661         2
        21        20        19        24     9        0.000000       -0.531422         3
        21        20        19        24     9      180.000000       -0.483502         4
        21        22        23        24     9        0.000000        2.929372         1
        21        22        23        24     9      180.000000       -2.275396         2
        21        22        23        24     9        0.000000        0.136332         3
        21        22        23        24     9      180.000000        0.386228         4
        21        22        23        28     9        0.000000       -0.123649         1
        21        22        23        28     9      180.000000        0.088231         2
        21        22        23        28     9        0.000000        0.293555         3
        21        22        23        28     9      180.000000        0.009401         4
        21        22        23        29     9        0.000000       -0.123649         1
        21        22        23        29     9      180.000000        0.088231         2
        21        22        23        29     9        0.000000        0.293555         3
        21        22        23        29     9      180.000000        0.009401         4
        21        22        25        32     9        0.000000       -0.036256         1
        21        22        25        32     9      180.000000        0.018735         2
        21        22        25        32     9        0.000000        1.024067         3
        21        22        25        32     9      180.000000        0.001601         4
        21        22        25        33     9        0.000000       -0.036256         1
        21        22        25        33     9      180.000000        0.018735         2
        21        22        25        33     9        0.000000        1.024067         3
        21        22        25        33     9      180.000000        0.001601         4
        21        22        25        34     9        0.000000       -0.036256         1
        21        22        25        34     9      180.000000        0.018735         2
        21        22        25        34     9        0.000000        1.024067         3
        21        22        25        34     9      180.000000        0.001601         4
        22        23        24        30     9        0.000000       -0.054085         1
        22        23        24        30     9      180.000000        0.034526         2
        22        23        24        30     9        0.000000        0.373195         3
        22        23        24        30     9      180.000000        0.083514         4
        22        23        24        31     9        0.000000       -0.054085         1
        22        23        24        31     9      180.000000        0.034526         2
        22        23        24        31     9        0.000000        0.373195         3
        22        23        24        31     9      180.000000        0.083514         4
        23        22        21        26     9        0.000000       -0.029691         1
        23        22        21        26     9      180.000000        0.036400         2
        23        22        21        26     9        0.000000        0.631979         3
        23        22        21        26     9      180.000000        0.071457         4
        23        22        21        27     9        0.000000       -0.029691         1
        23        22        21        27     9      180.000000        0.036400         2
        23        22        21        27     9        0.000000        0.631979         3
        23        22        21        27     9      180.000000        0.071457         4
        23        22        25        32     9        0.000000       -0.014100         1
        23        22        25        32     9      180.000000        0.015343         2
        23        22        25        32     9        0.000000        0.884158         3
        23        22        25        32     9      180.000000        0.019132         4
        23        22        25        33     9        0.000000       -0.014100         1
        23        22        25        33     9      180.000000        0.015343         2
        23        22        25        33     9        0.000000        0.884158         3
        23        22        25        33     9      180.000000        0.019132         4
        23        22        25        34     9        0.000000       -0.014100         1
        23        22        25        34     9      180.000000        0.015343         2
        23        22        25        34     9        0.000000        0.884158         3
        23        22        25        34     9      180.000000        0.019132         4
        24        23        22        25     9        0.000000        1.698500         1
        24        23        22        25     9      180.000000       -0.487751         2
        24        23        22        25     9        0.000000        0.450767         3
        24        23        22        25     9      180.000000        0.246699         4
        25        22        21        26     9        0.000000        0.111988         1
        25        22        21        26     9      180.000000        0.004567         2
        25        22        21        26     9        0.000000        0.981665         3
        25        22        21        26     9      180.000000       -0.069874         4
        25        22        21        27     9        0.000000        0.111988         1
        25        22        21        27     9      180.000000        0.004567         2
        25        22        21        27     9        0.000000        0.981665         3
        25        22        21        27     9      180.000000       -0.069874         4
        25        22        23        28     9        0.000000       -0.115413         1
        25        22        23        28     9      180.000000       -0.101300         2
        25        22        23        28     9        0.000000        0.611434         3
        25        22        23        28     9      180.000000       -0.123227         4
        25        22        23        29     9        0.000000       -0.115413         1
        25        22        23        29     9      180.000000       -0.101300         2
        25        22        23        29     9        0.000000        0.611434         3
        25        22        23        29     9      180.000000       -0.123227         4
        28        23        24        30     9        0.000000       -0.014895         1
        28        23        24        30     9      180.000000       -0.022227         2
        28        23        24        30     9        0.000000        0.401862         3
        28        23        24        30     9      180.000000       -0.001746         4
        28        23        24        31     9        0.000000       -0.014895         1
        28        23        24        31     9      180.000000       -0.022227         2
        28        23        24        31     9        0.000000        0.401862         3
        28        23        24        31     9      180.000000       -0.001746         4
        29        23        24        30     9        0.000000       -0.014895         1
        29        23        24        30     9      180.000000       -0.022227         2
        29        23        24        30     9        0.000000        0.401862         3
        29        23        24        30     9      180.000000       -0.001746         4
        29        23        24        31     9        0.000000       -0.014895         1
        29        23        24        31     9      180.000000       -0.022227         2
        29        23        24        31     9        0.000000        0.401862         3
        29        23        24        31     9      180.000000       -0.001746         4
        35         7         6        40     9        0.000000        0.178565         1
        35         7         6        40     9      180.000000        0.124017         2
        35         7         6        40     9        0.000000        0.213224         3
        35         7         6        40     9      180.000000       -0.042705         4
        35         7         6        41     9        0.000000        0.178565         1
        35         7         6        41     9      180.000000        0.124017         2
        35         7         6        41     9        0.000000        0.213224         3
        35         7         6        41     9      180.000000       -0.042705         4
        35         7         8        43     9        0.000000        0.159078         1
        35         7         8        43     9      180.000000        0.098531         2
        35         7         8        43     9        0.000000        0.249228         3
        35         7         8        43     9      180.000000       -0.047820         4
        35         7         8        44     9        0.000000        0.159078         1
        35         7         8        44     9      180.000000        0.098531         2
        35         7         8        44     9        0.000000        0.249228         3
        35         7         8        44     9      180.000000       -0.047820         4
        35        37        38        47     9        0.000000       -0.008626         1
        35        37        38        47     9      180.000000        0.038862         2
        35        37        38        47     9        0.000000        0.235749         3
        35        37        38        47     9      180.000000        0.020475         4
        35        37        38        48     9        0.000000       -0.008626         1
        35        37        38        48     9      180.000000        0.038862         2
        35        37        38        48     9        0.000000        0.235749         3
        35        37        38        48     9      180.000000        0.020475         4
        35        37        38        49     9        0.000000       -0.008626         1
        35        37        38        49     9      180.000000        0.038862         2
        35        37        38        49     9        0.000000        0.235749         3
        35        37        38        49     9      180.000000        0.020475         4
        35        37        39        50     9        0.000000       -0.008626         1
        35        37        39        50     9      180.000000        0.038862         2
        35        37        39        50     9        0.000000        0.235749         3
        35        37        39        50     9      180.000000        0.020475         4
        35        37        39        51     9        0.000000       -0.008626         1
        35        37        39        51     9      180.000000        0.038862         2
        35        37        39        51     9        0.000000        0.235749         3
        35        37        39        51     9      180.000000        0.020475         4
        35        37        39        52     9        0.000000       -0.008626         1
        35        37        39        52     9      180.000000        0.038862         2
        35        37        39        52     9        0.000000        0.235749         3
        35        37        39        52     9      180.000000        0.020475         4
        36        35         7        42     9        0.000000        1.593583         1
        36        35         7        42     9      180.000000        0.703025         2
        36        35         7        42     9        0.000000        0.717740         3
        36        35         7        42     9      180.000000       -0.500486         4
        36        35        37        38     9        0.000000       -0.375518         1
        36        35        37        38     9      180.000000       13.044421         2
        36        35        37        38     9        0.000000       -1.547115         3
        36        35        37        38     9      180.000000       -0.087257         4
        36        35        37        39     9        0.000000       -0.375518         1
        36        35        37        39     9      180.000000       13.044421         2
        36        35        37        39     9        0.000000       -1.547115         3
        36        35        37        39     9      180.000000       -0.087257         4
        37        35         7        42     9        0.000000       -0.215324         1
        37        35         7        42     9      180.000000        0.004504         2
        37        35         7        42     9        0.000000       -0.151551         3
        37        35         7        42     9      180.000000       -0.047823         4
        38        37        39        50     9        0.000000       -0.024574         1
        38        37        39        50     9      180.000000        0.053683         2
        38        37        39        50     9        0.000000        1.208154         3
        38        37        39        50     9      180.000000        0.010416         4
        38        37        39        51     9        0.000000       -0.024574         1
        38        37        39        51     9      180.000000        0.053683         2
        38        37        39        51     9        0.000000        1.208154         3
        38        37        39        51     9      180.000000        0.010416         4
        38        37        39        52     9        0.000000       -0.024574         1
        38        37        39        52     9      180.000000        0.053683         2
        38        37        39        52     9        0.000000        1.208154         3
        38        37        39        52     9      180.000000        0.010416         4
        39        37        38        47     9        0.000000       -0.024574         1
        39        37        38        47     9      180.000000        0.053683         2
        39        37        38        47     9        0.000000        1.208154         3
        39        37        38        47     9      180.000000        0.010416         4
        39        37        38        48     9        0.000000       -0.024574         1
        39        37        38        48     9      180.000000        0.053683         2
        39        37        38        48     9        0.000000        1.208154         3
        39        37        38        48     9      180.000000        0.010416         4
        39        37        38        49     9        0.000000       -0.024574         1
        39        37        38        49     9      180.000000        0.053683         2
        39        37        38        49     9        0.000000        1.208154         3
        39        37        38        49     9      180.000000        0.010416         4
        40         6         5        53     9        0.000000        0.032125         1
        40         6         5        53     9      180.000000        0.014817         2
        40         6         5        53     9        0.000000        0.397995         3
        40         6         5        53     9      180.000000        0.013189         4
        40         6         7        42     9        0.000000        0.092902         1
        40         6         7        42     9      180.000000        0.093401         2
        40         6         7        42     9        0.000000        0.416253         3
        40         6         7        42     9      180.000000       -0.035407         4
        41         6         5        53     9        0.000000        0.032125         1
        41         6         5        53     9      180.000000        0.014817         2
        41         6         5        53     9        0.000000        0.397995         3
        41         6         5        53     9      180.000000        0.013189         4
        41         6         7        42     9        0.000000        0.092902         1
        41         6         7        42     9      180.000000        0.093401         2
        41         6         7        42     9        0.000000        0.416253         3
        41         6         7        42     9      180.000000       -0.035407         4
        42         7         8        43     9        0.000000        0.089169         1
        42         7         8        43     9      180.000000        0.058938         2
        42         7         8        43     9        0.000000        0.395713         3
        42         7         8        43     9      180.000000       -0.024133         4
        42         7         8        44     9        0.000000        0.089169         1
        42         7         8        44     9      180.000000        0.058938         2
        42         7         8        44     9        0.000000        0.395713         3
        42         7         8        44     9      180.000000       -0.024133         4
        43         8         9        45     9        0.000000        0.013436         1
        43         8         9        45     9      180.000000        0.010119         2
        43         8         9        45     9        0.000000        0.296255         3
        43         8         9        45     9      180.000000        0.044245         4
        43         8         9        46     9        0.000000        0.013436         1
        43         8         9        46     9      180.000000        0.010119         2
        43         8         9        46     9        0.000000        0.296255         3
        43         8         9        46     9      180.000000        0.044245         4
        44         8         9        45     9        0.000000        0.013436         1
        44         8         9        45     9      180.000000        0.010119         2
        44         8         9        45     9        0.000000        0.296255         3
        44         8         9        45     9      180.000000        0.044245         4
        44         8         9        46     9        0.000000        0.013436         1
        44         8         9        46     9      180.000000        0.010119         2
        44         8         9        46     9        0.000000        0.296255         3
        44         8         9        46     9      180.000000        0.044245         4
        54        55        57        58     9        0.000000        0.215572         1
        54        55        57        58     9      180.000000       22.224260         2
        54        55        57        58     9        0.000000       -5.935596         3
        54        55        57        58     9      180.000000       -0.050089         4
        54        55        57        62     9        0.000000        0.502244         1
        54        55        57        62     9      180.000000        5.462522         2
        54        55        57        62     9        0.000000       -0.214243         3
        54        55        57        62     9      180.000000        0.230399         4
        54        56        58        57     9        0.000000       -0.006323         1
        54        56        58        57     9      180.000000       25.347295         2
        54        56        58        57     9        0.000000       -8.678076         3
        54        56        58        57     9      180.000000       -0.104152         4
        54        56        58        59     9        0.000000        0.143500         1
        54        56        58        59     9      180.000000        4.267029         2
        54        56        58        59     9        0.000000       -0.767473         3
        54        56        58        59     9      180.000000        0.136339         4
        55        54        56        58     9        0.000000       -0.273990         1
        55        54        56        58     9      180.000000       35.131286         2
        55        54        56        58     9        0.000000       -6.172475         3
        55        54        56        58     9      180.000000       -0.677709         4
        55        54        56        67     9        0.000000        0.461914         1
        55        54        56        67     9      180.000000       18.579366         2
        55        54        56        67     9        0.000000       -0.379682         3
        55        54        56        67     9      180.000000       -0.368369         4
        55        57        58        56     9        0.000000        0.265231         1
        55        57        58        56     9      180.000000       19.978355         2
        55        57        58        56     9        0.000000       -5.581547         3
        55        57        58        56     9      180.000000       -0.290374         4
        55        57        58        59     9        0.000000        0.660615         1
        55        57        58        59     9      180.000000       11.258329         2
        55        57        58        59     9        0.000000       -1.650576         3
        55        57        58        59     9      180.000000        0.040136         4
        55        57        62        61     9        0.000000        0.213094         1
        55        57        62        61     9      180.000000       16.908769         2
        55        57        62        61     9        0.000000       -0.100346         3
        55        57        62        61     9      180.000000       -0.416332         4
        55        57        62        66     9        0.000000        0.186302         1
        55        57        62        66     9      180.000000       12.113108         2
        55        57        62        66     9        0.000000       -0.162055         3
        55        57        62        66     9      180.000000        0.037672         4
        56        54        55        57     9        0.000000        0.350012         1
        56        54        55        57     9      180.000000       22.270997         2
        56        54        55        57     9        0.000000       -5.956402         3
        56        54        55        57     9      180.000000       -0.176671         4
        56        58        57        62     9        0.000000        0.373685         1
        56        58        57        62     9      180.000000       11.063156         2
        56        58        57        62     9        0.000000       -1.909895         3
        56        58        57        62     9      180.000000       -0.034353         4
        56        58        59        60     9        0.000000        0.104327         1
        56        58        59        60     9      180.000000       13.169914         2
        56        58        59        60     9        0.000000       -0.593139         3
        56        58        59        60     9      180.000000       -0.102865         4
        56        58        59        63     9        0.000000       -0.248108         1
        56        58        59        63     9      180.000000       10.276298         2
        56        58        59        63     9        0.000000       -0.097249         3
        56        58        59        63     9      180.000000        0.091635         4
        57        58        56        67     9        0.000000        1.317045         1
        57        58        56        67     9      180.000000       11.354349         2
        57        58        56        67     9        0.000000        0.367303         3
        57        58        56        67     9      180.000000       -0.233744         4
        57        58        59        60     9        0.000000       -0.080452         1
        57        58        59        60     9      180.000000       19.282974         2
        57        58        59        60     9        0.000000       -2.074519         3
        57        58        59        60     9      180.000000       -0.407704         4
        57        58        59        63     9        0.000000        0.241201         1
        57        58        59        63     9      180.000000       13.465401         2
        57        58        59        63     9        0.000000       -0.285783         3
        57        58        59        63     9      180.000000       -0.005221         4
        57        62        61        60     9        0.000000       -0.190994         1
        57        62        61        60     9      180.000000       19.344482         2
        57        62        61        60     9        0.000000       -1.536520         3
        57        62        61        60     9      180.000000       -0.375553         4
        57        62        61        65     9        0.000000        0.359788         1
        57        62        61        65     9      180.000000       22.202378         2
        57        62        61        65     9        0.000000        0.448715         3
        57        62        61        65     9      180.000000       -0.945377         4
        58        57        62        61     9        0.000000       -0.250600         1
        58        57        62        61     9      180.000000       16.723066         2
        58        57        62        61     9        0.000000       -1.756056         3
        58        57        62        61     9      180.000000       -0.242253         4
        58        57        62        66     9        0.000000        0.047525         1
        58        57        62        66     9      180.000000       11.922061         2
        58        57        62        66     9        0.000000       -0.503867         3
        58        57        62        66     9      180.000000        0.038524         4
        58        59        60        61     9        0.000000       -0.062175         1
        58        59        60        61     9      180.000000       20.595882         2
        58        59        60        61     9        0.000000       -1.587273         3
        58        59        60        61     9      180.000000       -0.379035         4
        58        59        60        64     9        0.000000       -0.001264         1
        58        59        60        64     9      180.000000       16.274714         2
        58        59        60        64     9        0.000000       -0.605986         3
        58        59        60        64     9      180.000000        0.003625         4
        59        58        56        67     9        0.000000       -0.794936         1
        59        58        56        67     9      180.000000        4.874664         2
        59        58        56        67     9        0.000000       -0.163508         3
        59        58        56        67     9      180.000000        0.184187         4
        59        58        57        62     9        0.000000       -0.063433         1
        59        58        57        62     9      180.000000       11.449910         2
        59        58        57        62     9        0.000000       -1.577580         3
        59        58        57        62     9      180.000000       -0.082400         4
        59        60        61        62     9        0.000000       -0.102325         1
        59        60        61        62     9      180.000000       16.631191         2
        59        60        61        62     9        0.000000       -1.272214         3
        59        60        61        62     9      180.000000       -0.264503         4
        59        60        61        65     9        0.000000        0.340377         1
        59        60        61        65     9      180.000000       17.482833         2
        59        60        61        65     9        0.000000        0.246333         3
        59        60        61        65     9      180.000000       -0.458201         4
        60        61        62        66     9        0.000000        0.084703         1
        60        61        62        66     9      180.000000       13.504792         2
        60        61        62        66     9        0.000000       -0.482835         3
        60        61        62        66     9      180.000000        0.127556         4
        61        60        59        63     9        0.000000        0.027738         1
        61        60        59        63     9      180.000000       14.921916         2
        61        60        59        63     9        0.000000       -0.510619         3
        61        60        59        63     9      180.000000        0.180115         4
        62        61        60        64     9        0.000000        0.015473         1
        62        61        60        64     9      180.000000       13.163842         2
        62        61        60        64     9        0.000000       -0.588964         3
        62        61        60        64     9      180.000000        0.141184         4
        63        59        60        64     9        0.000000       -0.130296         1
        63        59        60        64     9      180.000000       12.425865         2
        63        59        60        64     9        0.000000       -0.740707         3
        63        59        60        64     9      180.000000        0.287144         4
        64        60        61        65     9        0.000000        0.119282         1
        64        60        61        65     9      180.000000       12.833496         2
        64        60        61        65     9        0.000000       -0.110448         3
        64        60        61        65     9      180.000000        0.219898         4
        65        61        62        66     9        0.000000        0.203589         1
        65        61        62        66     9      180.000000       13.683875         2
        65        61        62        66     9        0.000000       -0.062887         3
        65        61        62        66     9      180.000000        0.233855         4

[ dihedrals ] ; impropers
;       ai        aj        ak        al funct           phase               k        pn
         1         2         4        54     4      180.000000       14.717157         2
         1         4        54         2     4      180.000000       14.717157         2
         1        54         2         4     4      180.000000       14.717157         2
        11        10        12        13     4      180.000000       14.088156         2
        11        12        13        10     4      180.000000       14.088156         2
        11        13        10        12     4      180.000000       14.088156         2
        35         7        36        37     4      180.000000       15.867169         2
        35        36        37         7     4      180.000000       15.867169         2
        35        37         7        36     4      180.000000       15.867169         2

[ pairs ]
;       ai        aj funct
         1         5     1
         1         9     1
         1        17     1
         1        57     1
         1        58     1
         1        67     1
         2         6     1
         2         8     1
         2        10     1
         2        45     1
         2        46     1
         2        53     1
         2        55     1
         2        56     1
         3         4     1
         3         7     1
         3        11     1
         3        18     1
         3        40     1
         3        41     1
         3        43     1
         3        44     1
         3        54     1
         4        16     1
         4        55     1
         4        56     1
         5         8     1
         5        12     1
         5        13     1
         5        16     1
         5        35     1
         5        42     1
         5        45     1
         5        46     1
         6         9     1
         6        11     1
         6        17     1
         6        18     1
         6        36     1
         6        37     1
         6        43     1
         6        44     1
         7        10     1
         7        38     1
         7        39     1
         7        45     1
         7        46     1
         7        53     1
         8        17     1
         8        36     1
         8        37     1
         8        40     1
         8        41     1
         9        10     1
         9        16     1
         9        35     1
         9        42     1
         9        53     1
        10        14     1
        10        15     1
        10        17     1
        10        40     1
        10        41     1
        11        19     1
        11        20     1
        11        53     1
        12        18     1
        12        21     1
        12        24     1
        13        14     1
        13        15     1
        13        18     1
        14        21     1
        14        23     1
        14        30     1
        14        31     1
        15        22     1
        15        24     1
        15        26     1
        15        27     1
        16        17     1
        16        54     1
        17        45     1
        17        46     1
        17        53     1
        18        53     1
        19        22     1
        19        26     1
        19        27     1
        19        28     1
        19        29     1
        20        23     1
        20        25     1
        20        30     1
        20        31     1
        21        24     1
        21        28     1
        21        29     1
        21        32     1
        21        33     1
        21        34     1
        22        30     1
        22        31     1
        23        26     1
        23        27     1
        23        32     1
        23        33     1
        23        34     1
        24        25     1
        25        26     1
        25        27     1
        25        28     1
        25        29     1
        28        30     1
        28        31     1
        29        30     1
        29        31     1
        35        40     1
        35        41     1
        35        43     1
        35        44     1
        35        47     1
        35        48     1
        35        49     1
        35        50     1
        35        51     1
        35        52     1
        36        38     1
        36        39     1
        36        42     1
        37        42     1
        38        50     1
        38        51     1
        38        52     1
        39        47     1
        39        48     1
        39        49     1
        40        42     1
        40        53     1
        41        42     1
        41        53     1
        42        43     1
        42        44     1
        43        45     1
        43        46     1
        44        45     1
        44        46     1
        54        59     1
        54        62     1
        55        59     1
        55        61     1
        55        66     1
        55        67     1
        56        60     1
        56        62     1
        56        63     1
        57        60     1
        57        63     1
        57        65     1
        57        67     1
        58        61     1
        58        64     1
        58        66     1
        59        62     1
        59        65     1
        59        67     1
        60        66     1
        61        63     1
        62        64     1
        63        64     1
        64        65     1
        65        66     1
