; ITP file created by ByteFF-ML, 2025-12-06 08:04:34.144538

[ atomtypes ]
;name           bonded.type        at.num        mass        charge   ptype           sigma         epsilon
 c0bf                                   6      0.0000       0.00000       A     3.31225e-01     4.13787e-01
 n1bf                                   7      0.0000       0.00000       A     3.26582e-01     4.88207e-01
 c2bf                                   6      0.0000       0.00000       A     3.39889e-01     4.48132e-01
 o3bf                                   8      0.0000       0.00000       A     3.04582e-01     6.10219e-01
 c4bf                                   6      0.0000       0.00000       A     3.39957e-01     4.49241e-01
 c5bf                                   6      0.0000       0.00000       A     3.39695e-01     4.50020e-01
 c6bf                                   6      0.0000       0.00000       A     3.39807e-01     4.51065e-01
 c7bf                                   6      0.0000       0.00000       A     3.39783e-01     4.50599e-01
 c8bf                                   6      0.0000       0.00000       A     3.39769e-01     4.51274e-01
 n9bf                                   7      0.0000       0.00000       A     3.26602e-01     4.88281e-01
 c10bf                                  6      0.0000       0.00000       A     3.31258e-01     4.13621e-01
 c11bf                                  6      0.0000       0.00000       A     3.31371e-01     4.12927e-01
 o12bf                                  8      0.0000       0.00000       A     3.04582e-01     6.10219e-01
 n13bf                                  7      0.0000       0.00000       A     3.38377e-01     3.93517e-01
 s14bf                                 16      0.0000       0.00000       A     3.53468e-01     1.17897e+00
 h15bf                                  1      0.0000       0.00000       A     1.10612e-01     4.02241e-02
 h16bf                                  1      0.0000       0.00000       A     2.42166e-01     8.63681e-02
 h17bf                                  1      0.0000       0.00000       A     1.10612e-01     4.02241e-02
 c18bf                                  6      0.0000       0.00000       A     3.31347e-01     4.13267e-01
 c19bf                                  6      0.0000       0.00000       A     3.31421e-01     4.13824e-01
 c20bf                                  6      0.0000       0.00000       A     3.39969e-01     4.50893e-01
 n21bf                                  7      0.0000       0.00000       A     3.36930e-01     3.57427e-01
 c22bf                                  6      0.0000       0.00000       A     3.39827e-01     4.51767e-01
 c23bf                                  6      0.0000       0.00000       A     3.39882e-01     4.51317e-01
 c24bf                                  6      0.0000       0.00000       A     3.39758e-01     4.50040e-01
 h25bf                                  1      0.0000       0.00000       A     2.42170e-01     8.71342e-02
 h26bf                                  1      0.0000       0.00000       A     2.42170e-01     8.71342e-02
 h27bf                                  1      0.0000       0.00000       A     2.42257e-01     8.79530e-02
 h28bf                                  1      0.0000       0.00000       A     2.42257e-01     8.79530e-02
 h29bf                                  1      0.0000       0.00000       A     2.59883e-01     8.84270e-02
 h30bf                                  1      0.0000       0.00000       A     2.59883e-01     8.84270e-02
 h31bf                                  1      0.0000       0.00000       A     2.41989e-01     8.72555e-02
 h32bf                                  1      0.0000       0.00000       A     2.41989e-01     8.72555e-02
 h33bf                                  1      0.0000       0.00000       A     2.41989e-01     8.72555e-02
 c34bf                                  6      0.0000       0.00000       A     3.31656e-01     4.11194e-01
 o35bf                                  8      0.0000       0.00000       A     3.04848e-01     6.12895e-01
 n36bf                                  7      0.0000       0.00000       A     3.18436e-01     6.83644e-01
 c37bf                                  6      0.0000       0.00000       A     3.39787e-01     4.50128e-01
 c38bf                                  6      0.0000       0.00000       A     3.39787e-01     4.50128e-01
 h39bf                                  1      0.0000       0.00000       A     2.59758e-01     8.65469e-02
 h40bf                                  1      0.0000       0.00000       A     2.59758e-01     8.65469e-02
 h41bf                                  1      0.0000       0.00000       A     2.59710e-01     8.69571e-02
 h42bf                                  1      0.0000       0.00000       A     2.59950e-01     8.71566e-02
 h43bf                                  1      0.0000       0.00000       A     2.59950e-01     8.71566e-02
 h44bf                                  1      0.0000       0.00000       A     2.59873e-01     8.66777e-02
 h45bf                                  1      0.0000       0.00000       A     2.59873e-01     8.66777e-02
 h46bf                                  1      0.0000       0.00000       A     2.42033e-01     8.76162e-02
 h47bf                                  1      0.0000       0.00000       A     2.42033e-01     8.76162e-02
 h48bf                                  1      0.0000       0.00000       A     2.42033e-01     8.76162e-02
 h49bf                                  1      0.0000       0.00000       A     2.42033e-01     8.76162e-02
 h50bf                                  1      0.0000       0.00000       A     2.42033e-01     8.76162e-02
 h51bf                                  1      0.0000       0.00000       A     2.42033e-01     8.76162e-02
 h52bf                                  1      0.0000       0.00000       A     2.42061e-01     8.64671e-02
 c53bf                                  6      0.0000       0.00000       A     3.31463e-01     4.11444e-01
 n54bf                                  7      0.0000       0.00000       A     3.38601e-01     3.95065e-01
 s55bf                                 16      0.0000       0.00000       A     3.53694e-01     1.18167e+00
 c56bf                                  6      0.0000       0.00000       A     3.31522e-01     4.13503e-01
 c57bf                                  6      0.0000       0.00000       A     3.31420e-01     4.13583e-01
 c58bf                                  6      0.0000       0.00000       A     3.31406e-01     4.12515e-01
 c59bf                                  6      0.0000       0.00000       A     3.31522e-01     4.13007e-01
 c60bf                                  6      0.0000       0.00000       A     3.31511e-01     4.12333e-01
 c61bf                                  6      0.0000       0.00000       A     3.31474e-01     4.13875e-01
 h62bf                                  1      0.0000       0.00000       A     2.62466e-01     6.69008e-02
 h63bf                                  1      0.0000       0.00000       A     2.62485e-01     6.72137e-02
 cl64bf                                17      0.0000       0.00000       A     3.46787e-01     1.10624e+00
 h65bf                                  1      0.0000       0.00000       A     2.62445e-01     6.71754e-02

[ moleculetype ]
;name             nrexcl
 8d                    3

[ atoms ]
;       nr            type      resi   res      atom      cgnr      charge          mass ; qtot
         1            c0bf         1   UNL        c0         1     0.54206       12.0110 ; qtot    0.542
         2            n1bf         1   UNL        n1         2    -0.48866       14.0070 ; qtot    0.053
         3            c2bf         1   UNL        c2         3     0.09780       12.0110 ; qtot    0.151
         4            o3bf         1   UNL        o3         4    -0.57423       15.9990 ; qtot   -0.423
         5            c4bf         1   UNL        c4         5     0.09878       12.0110 ; qtot   -0.324
         6            c5bf         1   UNL        c5         6    -0.07596       12.0110 ; qtot   -0.400
         7            c6bf         1   UNL        c6         7    -0.13491       12.0110 ; qtot   -0.535
         8            c7bf         1   UNL        c7         8    -0.06729       12.0110 ; qtot   -0.602
         9            c8bf         1   UNL        c8         9    -0.08759       12.0110 ; qtot   -0.690
        10            n9bf         1   UNL        n9        10    -0.49009       14.0070 ; qtot   -1.180
        11           c10bf         1   UNL       c10        11     0.53549       12.0110 ; qtot   -0.645
        12           c11bf         1   UNL       c11        12     0.38153       12.0110 ; qtot   -0.263
        13           o12bf         1   UNL       o12        13    -0.58023       15.9990 ; qtot   -0.843
        14           n13bf         1   UNL       n13        14    -0.61219       14.0070 ; qtot   -1.455
        15           s14bf         1   UNL       s14        15     0.02030       32.0670 ; qtot   -1.435
        16           h15bf         1   UNL       h15        16     0.33961        1.0080 ; qtot   -1.096
        17           h16bf         1   UNL       h16        17     0.07708        1.0080 ; qtot   -1.018
        18           h17bf         1   UNL       h17        18     0.34007        1.0080 ; qtot   -0.678
        19           c18bf         1   UNL       c18        19     0.28744       12.0110 ; qtot   -0.391
        20           c19bf         1   UNL       c19        20    -0.23576       12.0110 ; qtot   -0.627
        21           c20bf         1   UNL       c20        21     0.24225       12.0110 ; qtot   -0.385
        22           n21bf         1   UNL       n21        22    -0.71279       14.0070 ; qtot   -1.097
        23           c22bf         1   UNL       c22        23     0.15975       12.0110 ; qtot   -0.938
        24           c23bf         1   UNL       c23        24    -0.11333       12.0110 ; qtot   -1.051
        25           c24bf         1   UNL       c24        25     0.14641       12.0110 ; qtot   -0.904
        26           h25bf         1   UNL       h25        26     0.05577        1.0080 ; qtot   -0.849
        27           h26bf         1   UNL       h26        27     0.05577        1.0080 ; qtot   -0.793
        28           h27bf         1   UNL       h27        28     0.04433        1.0080 ; qtot   -0.749
        29           h28bf         1   UNL       h28        29     0.04433        1.0080 ; qtot   -0.704
        30           h29bf         1   UNL       h29        30     0.06561        1.0080 ; qtot   -0.639
        31           h30bf         1   UNL       h30        31     0.06561        1.0080 ; qtot   -0.573
        32           h31bf         1   UNL       h31        32     0.03413        1.0080 ; qtot   -0.539
        33           h32bf         1   UNL       h32        33     0.03413        1.0080 ; qtot   -0.505
        34           h33bf         1   UNL       h33        34     0.03413        1.0080 ; qtot   -0.471
        35           c34bf         1   UNL       c34        35     0.60518       12.0110 ; qtot    0.135
        36           o35bf         1   UNL       o35        36    -0.60574       15.9990 ; qtot   -0.471
        37           n36bf         1   UNL       n36        37    -0.42066       14.0070 ; qtot   -0.892
        38           c37bf         1   UNL       c37        38     0.08301       12.0110 ; qtot   -0.809
        39           c38bf         1   UNL       c38        39     0.08301       12.0110 ; qtot   -0.726
        40           h39bf         1   UNL       h39        40     0.06130        1.0080 ; qtot   -0.665
        41           h40bf         1   UNL       h40        41     0.06130        1.0080 ; qtot   -0.603
        42           h41bf         1   UNL       h41        42     0.06316        1.0080 ; qtot   -0.540
        43           h42bf         1   UNL       h42        43     0.05027        1.0080 ; qtot   -0.490
        44           h43bf         1   UNL       h43        44     0.05027        1.0080 ; qtot   -0.440
        45           h44bf         1   UNL       h44        45     0.05508        1.0080 ; qtot   -0.384
        46           h45bf         1   UNL       h45        46     0.05508        1.0080 ; qtot   -0.329
        47           h46bf         1   UNL       h46        47     0.04477        1.0080 ; qtot   -0.285
        48           h47bf         1   UNL       h47        48     0.04477        1.0080 ; qtot   -0.240
        49           h48bf         1   UNL       h48        49     0.04477        1.0080 ; qtot   -0.195
        50           h49bf         1   UNL       h49        50     0.04477        1.0080 ; qtot   -0.150
        51           h50bf         1   UNL       h50        51     0.04477        1.0080 ; qtot   -0.106
        52           h51bf         1   UNL       h51        52     0.04477        1.0080 ; qtot   -0.061
        53           h52bf         1   UNL       h52        53     0.07783        1.0080 ; qtot    0.017
        54           c53bf         1   UNL       c53        54     0.33777       12.0110 ; qtot    0.355
        55           n54bf         1   UNL       n54        55    -0.50318       14.0070 ; qtot   -0.148
        56           s55bf         1   UNL       s55        56     0.08928       32.0670 ; qtot   -0.059
        57           c56bf         1   UNL       c56        57     0.09042       12.0110 ; qtot    0.031
        58           c57bf         1   UNL       c57        58    -0.17964       12.0110 ; qtot   -0.148
        59           c58bf         1   UNL       c58        59    -0.05909       12.0110 ; qtot   -0.207
        60           c59bf         1   UNL       c59        60    -0.09279       12.0110 ; qtot   -0.300
        61           c60bf         1   UNL       c60        61     0.12525       12.0110 ; qtot   -0.175
        62           c61bf         1   UNL       c61        62    -0.03566       12.0110 ; qtot   -0.211
        63           h62bf         1   UNL       h62        63     0.13181        1.0080 ; qtot   -0.079
        64           h63bf         1   UNL       h63        64     0.13480        1.0080 ; qtot    0.056
        65          cl64bf         1   UNL      cl64        65    -0.20874       35.4530 ; qtot   -0.153
        66           h65bf         1   UNL       h65        66     0.15271        1.0080 ; qtot    0.000

[ bonds ]
;       ai        aj funct               r               k
         1         2     1        0.135989   318526.561426
         1         4     1        0.123124   599997.295996
         1        54     1        0.150184   179332.639600
         2         3     1        0.146317   190321.615283
         2        16     1        0.101405   412667.889355
         3         5     1        0.154773   156402.652026
         3         9     1        0.153893   172819.489233
         3        17     1        0.109306   301623.012451
         5         6     1        0.153891   171747.952124
         5        10     1        0.146252   191021.906665
         5        53     1        0.109291   301684.863330
         6         7     1        0.154579   164893.255688
         6        40     1        0.109326   300596.548340
         6        41     1        0.109326   300596.548340
         7         8     1        0.154661   163666.440186
         7        35     1        0.153191   158389.860498
         7        42     1        0.109414   302100.760693
         8         9     1        0.153693   181135.763818
         8        43     1        0.109447   297470.142188
         8        44     1        0.109447   297470.142188
         9        45     1        0.109409   298760.123730
         9        46     1        0.109409   298760.123730
        10        11     1        0.136095   315450.182471
        10        18     1        0.101409   412617.504639
        11        12     1        0.149761   181928.231396
        11        13     1        0.123205   595504.348047
        12        14     1        0.130744   394780.497705
        12        15     1        0.175753   114860.631787
        14        19     1        0.137483   250388.573877
        15        20     1        0.173418   163411.809668
        19        20     1        0.137232   358668.241504
        19        24     1        0.150284   209899.921094
        20        21     1        0.150545   205958.217187
        21        22     1        0.146468   191918.016602
        21        26     1        0.110015   279945.275342
        21        27     1        0.110015   279945.249805
        22        23     1        0.146781   189560.941406
        22        25     1        0.146077   206296.839258
        23        24     1        0.153813   178870.826514
        23        28     1        0.109814   285833.060205
        23        29     1        0.109814   285833.060205
        24        30     1        0.109539   296322.146973
        24        31     1        0.109539   296322.146973
        25        32     1        0.109765   288786.145996
        25        33     1        0.109765   288786.145996
        25        34     1        0.109765   288786.145996
        35        36     1        0.123512   586720.450684
        35        37     1        0.137606   276714.984229
        37        38     1        0.145947   208517.507983
        37        39     1        0.145947   208517.507983
        38        47     1        0.109324   300806.693213
        38        48     1        0.109324   300806.693213
        38        49     1        0.109324   300806.693213
        39        50     1        0.109324   300806.693213
        39        51     1        0.109324   300806.693213
        39        52     1        0.109324   300806.693213
        54        55     1        0.129954   420736.211377
        54        56     1        0.177218   106945.187671
        55        57     1        0.138321   241505.337158
        56        58     1        0.174900   154261.263257
        57        58     1        0.141938   243581.402002
        57        62     1        0.140580   295324.335498
        58        59     1        0.139909   306614.929980
        59        60     1        0.139490   314929.225439
        59        63     1        0.108552   322043.097998
        60        61     1        0.140584   282865.724707
        60        64     1        0.108440   325927.930762
        61        62     1        0.138872   317536.385547
        61        65     1        0.175915   147180.180347
        62        66     1        0.108383   328091.485742

[ angles ]
;       ai        aj        ak funct           theta             cth
         1         2         3     1      123.276955      522.383630
         1         2        16     1      117.347717      420.232830
         1        54        55     1      123.864159      353.623941
         1        54        56     1      119.854393      473.132250
         2         1         4     1      125.156372      609.463673
         2         1        54     1      114.100021      427.243054
         2         3         5     1      111.175003      547.993680
         2         3         9     1      111.621498      630.591545
         2         3        17     1      106.338806      528.987878
         3         2        16     1      118.041405      388.752757
         3         5         6     1      110.958496      561.754606
         3         5        10     1      111.200607      548.409743
         3         5        53     1      107.751953      470.733517
         3         9         8     1      111.606400      623.305297
         3         9        45     1      108.979538      496.687903
         3         9        46     1      108.979538      496.687903
         4         1        54     1      120.759659      556.716518
         5         3         9     1      110.851883      554.604535
         5         3        17     1      107.694763      472.483703
         5         6         7     1      111.940201      596.811376
         5         6        40     1      109.081688      493.138117
         5         6        41     1      109.081688      493.138117
         5        10        11     1      123.287148      523.560284
         5        10        18     1      117.982994      388.331235
         6         5        10     1      111.415794      612.989071
         6         5        53     1      108.670311      471.698086
         6         7         8     1      110.560959      569.917990
         6         7        35     1      110.802452      642.130488
         6         7        42     1      107.640671      495.211858
         7         6        40     1      109.789185      465.155383
         7         6        41     1      109.789185      465.155383
         7         8         9     1      111.600388      627.192045
         7         8        43     1      109.459435      468.787845
         7         8        44     1      109.459435      468.787845
         7        35        36     1      120.367775      453.866799
         7        35        37     1      118.348633      449.080890
         8         7        35     1      111.026161      653.509377
         8         7        42     1      107.798851      493.236244
         8         9        45     1      109.995155      502.450863
         8         9        46     1      109.995140      502.450863
         9         3        17     1      108.824326      471.286236
         9         8        43     1      109.710251      513.187717
         9         8        44     1      109.710251      513.187717
        10         5        53     1      106.367630      527.615386
        10        11        12     1      114.245560      430.111414
        10        11        13     1      124.890869      615.174089
        11        10        18     1      117.270615      420.964947
        11        12        14     1      124.340652      359.309363
        11        12        15     1      120.844772      468.365589
        12        11        13     1      120.964073      537.680773
        12        14        19     1      111.406593      328.705787
        12        15        20     1       88.551132      167.360000
        14        12        15     1      114.891418      167.360000
        14        19        20     1      115.272217      312.892188
        14        19        24     1      122.848999      461.667684
        15        20        19     1      110.263878      167.360000
        15        20        21     1      125.788002      401.332369
        19        20        21     1      123.996292      562.620314
        19        24        23     1      109.429955      644.587349
        19        24        30     1      109.759384      484.571854
        19        24        31     1      109.759384      484.571854
        20        19        24     1      121.676254      406.530862
        20        21        22     1      110.200546      563.933816
        20        21        26     1      110.205734      462.983196
        20        21        27     1      110.205734      462.983196
        21        22        23     1      111.045578      613.756014
        21        22        25     1      111.203835      630.245325
        22        21        26     1      109.551048      459.134690
        22        21        27     1      109.551048      459.134690
        22        23        24     1      112.270889      625.644432
        22        23        28     1      109.041969      476.770682
        22        23        29     1      109.041969      476.770682
        22        25        32     1      110.858498      481.423224
        22        25        33     1      110.858498      481.423224
        22        25        34     1      110.858498      481.423224
        23        22        25     1      112.192528      649.121399
        23        24        30     1      110.261795      502.853519
        23        24        31     1      110.261795      502.853519
        24        23        28     1      109.631447      493.664916
        24        23        29     1      109.631447      493.664916
        26        21        27     1      106.585083      354.341693
        28        23        29     1      107.114723      348.812845
        30        24        31     1      106.901878      363.316136
        32        25        33     1      108.062943      347.504005
        32        25        34     1      108.062943      347.504005
        33        25        34     1      108.062943      347.504005
        35         7        42     1      108.212730      515.178845
        35        37        38     1      122.129654      505.902714
        35        37        39     1      122.129654      505.902714
        36        35        37     1      121.081711      636.267423
        37        38        47     1      110.326584      477.859329
        37        38        48     1      110.326584      477.859265
        37        38        49     1      110.326584      477.859265
        37        39        50     1      110.326584      477.859265
        37        39        51     1      110.326584      477.859265
        37        39        52     1      110.326584      477.859265
        38        37        39     1      114.947632      573.331280
        40         6        41     1      107.084290      355.159487
        43         8        44     1      106.645180      359.821255
        45         9        46     1      106.834862      356.409369
        47        38        48     1      108.724709      349.793087
        47        38        49     1      108.724709      349.793087
        48        38        49     1      108.724709      349.793087
        50        39        51     1      108.724709      349.793087
        50        39        52     1      108.724709      349.793087
        51        39        52     1      108.724709      349.793087
        54        55        57     1      111.076271      377.644593
        54        56        58     1       88.039001      322.141505
        55        54        56     1      116.302856      167.360000
        55        57        58     1      114.920898      295.703064
        55        57        62     1      124.714096      409.115537
        56        58        57     1      109.682251      167.360000
        56        58        59     1      129.348679      376.150002
        57        58        59     1      121.088669      647.134229
        57        62        61     1      117.904831      637.471242
        57        62        66     1      120.150406      443.498733
        58        57        62     1      120.033188      627.634028
        58        59        60     1      118.486717      719.495735
        58        59        63     1      121.483910      428.269327
        59        60        61     1      119.960861      600.695251
        59        60        64     1      120.459793      416.947545
        60        59        63     1      120.020226      438.833071
        60        61        62     1      122.202194      621.162159
        60        61        65     1      118.485535      389.420903
        61        60        64     1      119.722496      430.637127
        61        62        66     1      121.813232      418.599094
        62        61        65     1      119.245255      332.712975

[ dihedrals ] ; propers for gromacs 4.5 or higher, use funct 9
;       ai        aj        ak        al funct           phase               k        pn
         1         2         3         5     9        0.000000        0.931469         1
         1         2         3         5     9      180.000000       -0.396406         2
         1         2         3         5     9        0.000000        0.345279         3
         1         2         3         5     9      180.000000        0.177606         4
         1         2         3         9     9        0.000000       -0.140554         1
         1         2         3         9     9      180.000000       -0.216285         2
         1         2         3         9     9        0.000000        0.354877         3
         1         2         3         9     9      180.000000        0.043447         4
         1         2         3        17     9        0.000000       -0.005075         1
         1         2         3        17     9      180.000000        0.084098         2
         1         2         3        17     9        0.000000        0.199720         3
         1         2         3        17     9      180.000000        0.180625         4
         1        54        55        57     9        0.000000        0.813209         1
         1        54        55        57     9      180.000000       30.896044         2
         1        54        55        57     9        0.000000        0.665523         3
         1        54        55        57     9      180.000000       -1.189207         4
         1        54        56        58     9        0.000000        0.246648         1
         1        54        56        58     9      180.000000       17.510814         2
         1        54        56        58     9        0.000000       -0.981548         3
         1        54        56        58     9      180.000000       -0.789683         4
         2         1        54        55     9        0.000000        2.148768         1
         2         1        54        55     9      180.000000        1.826129         2
         2         1        54        55     9        0.000000        0.007757         3
         2         1        54        55     9      180.000000       -0.307876         4
         2         1        54        56     9        0.000000        0.050956         1
         2         1        54        56     9      180.000000        3.006081         2
         2         1        54        56     9        0.000000        0.454853         3
         2         1        54        56     9      180.000000       -0.401195         4
         2         3         5         6     9        0.000000       -0.681144         1
         2         3         5         6     9      180.000000        0.080400         2
         2         3         5         6     9        0.000000        0.115912         3
         2         3         5         6     9      180.000000        0.242498         4
         2         3         5        10     9        0.000000        2.554004         1
         2         3         5        10     9      180.000000        0.082492         2
         2         3         5        10     9        0.000000       -0.478209         3
         2         3         5        10     9      180.000000        0.083667         4
         2         3         5        53     9        0.000000       -0.425736         1
         2         3         5        53     9      180.000000        0.037930         2
         2         3         5        53     9        0.000000        0.351481         3
         2         3         5        53     9      180.000000       -0.013399         4
         2         3         9         8     9        0.000000       -0.380638         1
         2         3         9         8     9      180.000000        0.613886         2
         2         3         9         8     9        0.000000        0.177916         3
         2         3         9         8     9      180.000000        0.134579         4
         2         3         9        45     9        0.000000        0.060128         1
         2         3         9        45     9      180.000000        0.095878         2
         2         3         9        45     9        0.000000        0.373955         3
         2         3         9        45     9      180.000000       -0.078116         4
         2         3         9        46     9        0.000000        0.060128         1
         2         3         9        46     9      180.000000        0.095878         2
         2         3         9        46     9        0.000000        0.373955         3
         2         3         9        46     9      180.000000       -0.078116         4
         3         2         1         4     9        0.000000       -0.780285         1
         3         2         1         4     9      180.000000       10.312474         2
         3         2         1         4     9        0.000000        0.472799         3
         3         2         1         4     9      180.000000       -1.294074         4
         3         2         1        54     9        0.000000        1.594565         1
         3         2         1        54     9      180.000000       11.004444         2
         3         2         1        54     9        0.000000        0.639562         3
         3         2         1        54     9      180.000000       -0.279009         4
         3         5         6         7     9        0.000000        3.490545         1
         3         5         6         7     9      180.000000       -1.784574         2
         3         5         6         7     9        0.000000       -0.102229         3
         3         5         6         7     9      180.000000        0.006266         4
         3         5         6        40     9        0.000000       -0.093149         1
         3         5         6        40     9      180.000000        0.060443         2
         3         5         6        40     9        0.000000        0.166032         3
         3         5         6        40     9      180.000000        0.047274         4
         3         5         6        41     9        0.000000       -0.093149         1
         3         5         6        41     9      180.000000        0.060443         2
         3         5         6        41     9        0.000000        0.166032         3
         3         5         6        41     9      180.000000        0.047274         4
         3         5        10        11     9        0.000000        1.065668         1
         3         5        10        11     9      180.000000       -0.426987         2
         3         5        10        11     9        0.000000        0.342934         3
         3         5        10        11     9      180.000000        0.176724         4
         3         5        10        18     9        0.000000        0.602042         1
         3         5        10        18     9      180.000000       -1.108688         2
         3         5        10        18     9        0.000000        0.540854         3
         3         5        10        18     9      180.000000        0.019624         4
         3         9         8         7     9        0.000000        1.294200         1
         3         9         8         7     9      180.000000       -1.635809         2
         3         9         8         7     9        0.000000        0.188560         3
         3         9         8         7     9      180.000000        0.079571         4
         3         9         8        43     9        0.000000       -0.094788         1
         3         9         8        43     9      180.000000        0.066630         2
         3         9         8        43     9        0.000000        0.233861         3
         3         9         8        43     9      180.000000        0.023444         4
         3         9         8        44     9        0.000000       -0.094788         1
         3         9         8        44     9      180.000000        0.066630         2
         3         9         8        44     9        0.000000        0.233861         3
         3         9         8        44     9      180.000000        0.023444         4
         4         1         2        16     9        0.000000        0.045656         1
         4         1         2        16     9      180.000000       10.913885         2
         4         1         2        16     9        0.000000       -0.045817         3
         4         1         2        16     9      180.000000       -0.057679         4
         4         1        54        55     9        0.000000       -0.739328         1
         4         1        54        55     9      180.000000        3.110177         2
         4         1        54        55     9        0.000000        0.426715         3
         4         1        54        55     9      180.000000        0.217494         4
         4         1        54        56     9        0.000000        0.090862         1
         4         1        54        56     9      180.000000        4.021374         2
         4         1        54        56     9        0.000000       -0.361642         3
         4         1        54        56     9      180.000000        0.169286         4
         5         3         2        16     9        0.000000        0.543466         1
         5         3         2        16     9      180.000000       -1.273460         2
         5         3         2        16     9        0.000000        0.527390         3
         5         3         2        16     9      180.000000        0.021126         4
         5         3         9         8     9        0.000000        2.735660         1
         5         3         9         8     9      180.000000       -1.657428         2
         5         3         9         8     9        0.000000        0.042830         3
         5         3         9         8     9      180.000000        0.056295         4
         5         3         9        45     9        0.000000       -0.098718         1
         5         3         9        45     9      180.000000        0.062003         2
         5         3         9        45     9        0.000000        0.183451         3
         5         3         9        45     9      180.000000        0.054608         4
         5         3         9        46     9        0.000000       -0.098718         1
         5         3         9        46     9      180.000000        0.062003         2
         5         3         9        46     9        0.000000        0.183451         3
         5         3         9        46     9      180.000000        0.054608         4
         5         6         7         8     9        0.000000        2.165031         1
         5         6         7         8     9      180.000000       -2.097222         2
         5         6         7         8     9        0.000000        0.100591         3
         5         6         7         8     9      180.000000       -0.066916         4
         5         6         7        35     9        0.000000       -0.983937         1
         5         6         7        35     9      180.000000       -0.488697         2
         5         6         7        35     9        0.000000        0.042854         3
         5         6         7        35     9      180.000000        0.043589         4
         5         6         7        42     9        0.000000       -0.730470         1
         5         6         7        42     9      180.000000        0.097424         2
         5         6         7        42     9        0.000000        0.165336         3
         5         6         7        42     9      180.000000        0.052036         4
         5        10        11        12     9        0.000000        1.555928         1
         5        10        11        12     9      180.000000       10.814282         2
         5        10        11        12     9        0.000000        0.661597         3
         5        10        11        12     9      180.000000       -0.283510         4
         5        10        11        13     9        0.000000       -0.697008         1
         5        10        11        13     9      180.000000       10.165090         2
         5        10        11        13     9        0.000000        0.481442         3
         5        10        11        13     9      180.000000       -1.333102         4
         6         5         3         9     9        0.000000        3.464117         1
         6         5         3         9     9      180.000000       -1.637976         2
         6         5         3         9     9        0.000000        0.086339         3
         6         5         3         9     9      180.000000       -0.013014         4
         6         5         3        17     9        0.000000       -0.371017         1
         6         5         3        17     9      180.000000        0.081205         2
         6         5         3        17     9        0.000000        0.302984         3
         6         5         3        17     9      180.000000        0.057776         4
         6         5        10        11     9        0.000000        0.002927         1
         6         5        10        11     9      180.000000       -0.404022         2
         6         5        10        11     9        0.000000        0.371083         3
         6         5        10        11     9      180.000000        0.052955         4
         6         5        10        18     9        0.000000       -0.144735         1
         6         5        10        18     9      180.000000       -0.350990         2
         6         5        10        18     9        0.000000        0.351412         3
         6         5        10        18     9      180.000000       -0.039177         4
         6         7         8         9     9        0.000000        0.883255         1
         6         7         8         9     9      180.000000       -1.399723         2
         6         7         8         9     9        0.000000        0.313351         3
         6         7         8         9     9      180.000000       -0.050724         4
         6         7         8        43     9        0.000000       -0.056826         1
         6         7         8        43     9      180.000000        0.050149         2
         6         7         8        43     9        0.000000        0.270717         3
         6         7         8        43     9      180.000000        0.019384         4
         6         7         8        44     9        0.000000       -0.056826         1
         6         7         8        44     9      180.000000        0.050149         2
         6         7         8        44     9        0.000000        0.270717         3
         6         7         8        44     9      180.000000        0.019384         4
         6         7        35        36     9        0.000000       -0.455386         1
         6         7        35        36     9      180.000000        0.737900         2
         6         7        35        36     9        0.000000        0.287526         3
         6         7        35        36     9      180.000000        0.250951         4
         6         7        35        37     9        0.000000        0.270994         1
         6         7        35        37     9      180.000000        1.080078         2
         6         7        35        37     9        0.000000       -0.027563         3
         6         7        35        37     9      180.000000        0.001527         4
         7         6         5        10     9        0.000000       -0.371142         1
         7         6         5        10     9      180.000000        0.220404         2
         7         6         5        10     9        0.000000        0.058079         3
         7         6         5        10     9      180.000000        0.224988         4
         7         6         5        53     9        0.000000       -0.669148         1
         7         6         5        53     9      180.000000        0.139992         2
         7         6         5        53     9        0.000000        0.154327         3
         7         6         5        53     9      180.000000        0.076148         4
         7         8         9        45     9        0.000000       -0.081149         1
         7         8         9        45     9      180.000000        0.083136         2
         7         8         9        45     9        0.000000        0.213491         3
         7         8         9        45     9      180.000000        0.012123         4
         7         8         9        46     9        0.000000       -0.081149         1
         7         8         9        46     9      180.000000        0.083136         2
         7         8         9        46     9        0.000000        0.213491         3
         7         8         9        46     9      180.000000        0.012123         4
         7        35        37        38     9        0.000000        7.685850         1
         7        35        37        38     9      180.000000       10.413246         2
         7        35        37        38     9        0.000000        0.340038         3
         7        35        37        38     9      180.000000       -0.442447         4
         7        35        37        39     9        0.000000        7.685850         1
         7        35        37        39     9      180.000000       10.413246         2
         7        35        37        39     9        0.000000        0.340038         3
         7        35        37        39     9      180.000000       -0.442447         4
         8         7         6        40     9        0.000000       -0.052172         1
         8         7         6        40     9      180.000000        0.058083         2
         8         7         6        40     9        0.000000        0.229959         3
         8         7         6        40     9      180.000000        0.057798         4
         8         7         6        41     9        0.000000       -0.052172         1
         8         7         6        41     9      180.000000        0.058083         2
         8         7         6        41     9        0.000000        0.229959         3
         8         7         6        41     9      180.000000        0.057798         4
         8         7        35        36     9        0.000000       -0.698289         1
         8         7        35        36     9      180.000000        0.744054         2
         8         7        35        36     9        0.000000        0.336890         3
         8         7        35        36     9      180.000000        0.225666         4
         8         7        35        37     9        0.000000        0.291846         1
         8         7        35        37     9      180.000000        1.098654         2
         8         7        35        37     9        0.000000        0.042828         3
         8         7        35        37     9      180.000000       -0.012816         4
         8         9         3        17     9        0.000000       -0.422028         1
         8         9         3        17     9      180.000000        0.164555         2
         8         9         3        17     9        0.000000        0.250119         3
         8         9         3        17     9      180.000000        0.024274         4
         9         3         2        16     9        0.000000        0.077332         1
         9         3         2        16     9      180.000000       -0.113755         2
         9         3         2        16     9        0.000000        0.343097         3
         9         3         2        16     9      180.000000       -0.061089         4
         9         3         5        10     9        0.000000       -0.388820         1
         9         3         5        10     9      180.000000        0.248558         2
         9         3         5        10     9        0.000000        0.146218         3
         9         3         5        10     9      180.000000        0.208031         4
         9         3         5        53     9        0.000000       -0.379447         1
         9         3         5        53     9      180.000000        0.118163         2
         9         3         5        53     9        0.000000        0.320482         3
         9         3         5        53     9      180.000000        0.047336         4
         9         8         7        35     9        0.000000       -1.214715         1
         9         8         7        35     9      180.000000       -0.026304         2
         9         8         7        35     9        0.000000        0.125444         3
         9         8         7        35     9      180.000000        0.097348         4
         9         8         7        42     9        0.000000       -0.470240         1
         9         8         7        42     9      180.000000        0.119524         2
         9         8         7        42     9        0.000000        0.267326         3
         9         8         7        42     9      180.000000        0.031749         4
        10         5         3        17     9        0.000000       -0.397923         1
        10         5         3        17     9      180.000000        0.017004         2
        10         5         3        17     9        0.000000        0.351255         3
        10         5         3        17     9      180.000000       -0.008191         4
        10         5         6        40     9        0.000000        0.121999         1
        10         5         6        40     9      180.000000        0.128860         2
        10         5         6        40     9        0.000000        0.387587         3
        10         5         6        40     9      180.000000       -0.072829         4
        10         5         6        41     9        0.000000        0.121999         1
        10         5         6        41     9      180.000000        0.128860         2
        10         5         6        41     9        0.000000        0.387587         3
        10         5         6        41     9      180.000000       -0.072829         4
        10        11        12        14     9        0.000000        2.923749         1
        10        11        12        14     9      180.000000        2.022095         2
        10        11        12        14     9        0.000000        0.151149         3
        10        11        12        14     9      180.000000       -0.373995         4
        10        11        12        15     9        0.000000       -0.304414         1
        10        11        12        15     9      180.000000        3.200684         2
        10        11        12        15     9        0.000000        0.463910         3
        10        11        12        15     9      180.000000       -0.514292         4
        11        10         5        53     9        0.000000        0.019529         1
        11        10         5        53     9      180.000000        0.145848         2
        11        10         5        53     9        0.000000        0.215266         3
        11        10         5        53     9      180.000000        0.179578         4
        11        12        14        19     9        0.000000        0.509539         1
        11        12        14        19     9      180.000000       28.889665         2
        11        12        14        19     9        0.000000        0.564950         3
        11        12        14        19     9      180.000000       -0.961131         4
        11        12        15        20     9        0.000000       -1.127037         1
        11        12        15        20     9      180.000000       15.581777         2
        11        12        15        20     9        0.000000       -0.036420         3
        11        12        15        20     9      180.000000       -0.602861         4
        12        11        10        18     9        0.000000       -0.415752         1
        12        11        10        18     9      180.000000        9.010384         2
        12        11        10        18     9        0.000000        0.175298         3
        12        11        10        18     9      180.000000       -0.065606         4
        12        14        19        20     9        0.000000       -0.228535         1
        12        14        19        20     9      180.000000       27.756785         2
        12        14        19        20     9        0.000000       -2.863850         3
        12        14        19        20     9      180.000000       -0.158646         4
        12        14        19        24     9        0.000000        0.109642         1
        12        14        19        24     9      180.000000       22.524852         2
        12        14        19        24     9        0.000000        0.728535         3
        12        14        19        24     9      180.000000       -0.420500         4
        12        15        20        19     9        0.000000        0.019507         1
        12        15        20        19     9      180.000000       29.322726         2
        12        15        20        19     9        0.000000       -6.425576         3
        12        15        20        19     9      180.000000       -0.474428         4
        12        15        20        21     9        0.000000        0.448650         1
        12        15        20        21     9      180.000000       11.835073         2
        12        15        20        21     9        0.000000        0.424426         3
        12        15        20        21     9      180.000000       -0.134990         4
        13        11        10        18     9        0.000000       -0.005332         1
        13        11        10        18     9      180.000000       10.730372         2
        13        11        10        18     9        0.000000       -0.060300         3
        13        11        10        18     9      180.000000       -0.147584         4
        13        11        12        14     9        0.000000       -1.392140         1
        13        11        12        14     9      180.000000        3.582888         2
        13        11        12        14     9        0.000000        0.461599         3
        13        11        12        14     9      180.000000        0.214010         4
        13        11        12        15     9        0.000000        0.210149         1
        13        11        12        15     9      180.000000        4.370762         2
        13        11        12        15     9        0.000000       -0.343613         3
        13        11        12        15     9      180.000000        0.218765         4
        14        12        15        20     9        0.000000       -0.590193         1
        14        12        15        20     9      180.000000       31.322398         2
        14        12        15        20     9        0.000000       -5.851399         3
        14        12        15        20     9      180.000000       -0.585767         4
        14        19        20        15     9        0.000000       -0.800174         1
        14        19        20        15     9      180.000000       28.383673         2
        14        19        20        15     9        0.000000       -5.049933         3
        14        19        20        15     9      180.000000       -1.030530         4
        14        19        20        21     9        0.000000        0.006237         1
        14        19        20        21     9      180.000000       19.786124         2
        14        19        20        21     9        0.000000       -0.767005         3
        14        19        20        21     9      180.000000       -1.000863         4
        14        19        24        23     9        0.000000       -1.761287         1
        14        19        24        23     9      180.000000       -0.518566         2
        14        19        24        23     9        0.000000        0.250165         3
        14        19        24        23     9      180.000000        0.137553         4
        14        19        24        30     9        0.000000        0.061059         1
        14        19        24        30     9      180.000000        0.031081         2
        14        19        24        30     9        0.000000        0.254497         3
        14        19        24        30     9      180.000000       -0.033807         4
        14        19        24        31     9        0.000000        0.061059         1
        14        19        24        31     9      180.000000        0.031081         2
        14        19        24        31     9        0.000000        0.254497         3
        14        19        24        31     9      180.000000       -0.033807         4
        15        12        14        19     9        0.000000       -0.414856         1
        15        12        14        19     9      180.000000       36.017356         2
        15        12        14        19     9        0.000000       -4.165866         3
        15        12        14        19     9      180.000000        0.025250         4
        15        20        19        24     9        0.000000        0.102614         1
        15        20        19        24     9      180.000000       18.114968         2
        15        20        19        24     9        0.000000       -0.791874         3
        15        20        19        24     9      180.000000       -0.971119         4
        15        20        21        22     9        0.000000       -3.606837         1
        15        20        21        22     9      180.000000       -0.362514         2
        15        20        21        22     9        0.000000        0.387711         3
        15        20        21        22     9      180.000000        0.164191         4
        15        20        21        26     9        0.000000        0.050382         1
        15        20        21        26     9      180.000000        0.088073         2
        15        20        21        26     9        0.000000        0.411892         3
        15        20        21        26     9      180.000000       -0.037587         4
        15        20        21        27     9        0.000000        0.050382         1
        15        20        21        27     9      180.000000        0.088073         2
        15        20        21        27     9        0.000000        0.411892         3
        15        20        21        27     9      180.000000       -0.037587         4
        16         2         1        54     9        0.000000       -0.685102         1
        16         2         1        54     9      180.000000        9.030021         2
        16         2         1        54     9        0.000000        0.274617         3
        16         2         1        54     9      180.000000        0.054250         4
        16         2         3        17     9        0.000000       -0.793441         1
        16         2         3        17     9      180.000000        0.073595         2
        16         2         3        17     9        0.000000        0.542647         3
        16         2         3        17     9      180.000000        0.185944         4
        17         3         5        53     9        0.000000        0.142712         1
        17         3         5        53     9      180.000000       -0.170593         2
        17         3         5        53     9        0.000000        0.417278         3
        17         3         5        53     9      180.000000       -0.048817         4
        17         3         9        45     9        0.000000        0.035228         1
        17         3         9        45     9      180.000000        0.014588         2
        17         3         9        45     9        0.000000        0.371739         3
        17         3         9        45     9      180.000000        0.012826         4
        17         3         9        46     9        0.000000        0.035228         1
        17         3         9        46     9      180.000000        0.014588         2
        17         3         9        46     9        0.000000        0.371739         3
        17         3         9        46     9      180.000000        0.012826         4
        18        10         5        53     9        0.000000       -0.796801         1
        18        10         5        53     9      180.000000        0.146414         2
        18        10         5        53     9        0.000000        0.563223         3
        18        10         5        53     9      180.000000        0.175350         4
        19        20        21        22     9        0.000000       -3.311658         1
        19        20        21        22     9      180.000000        0.893056         2
        19        20        21        22     9        0.000000       -0.312861         3
        19        20        21        22     9      180.000000        0.089561         4
        19        20        21        26     9        0.000000       -0.010515         1
        19        20        21        26     9      180.000000       -0.166834         2
        19        20        21        26     9        0.000000       -0.357655         3
        19        20        21        26     9      180.000000       -0.002483         4
        19        20        21        27     9        0.000000       -0.010515         1
        19        20        21        27     9      180.000000       -0.166834         2
        19        20        21        27     9        0.000000       -0.357655         3
        19        20        21        27     9      180.000000       -0.002483         4
        19        24        23        22     9        0.000000       -1.384129         1
        19        24        23        22     9      180.000000       -0.653292         2
        19        24        23        22     9        0.000000        0.502380         3
        19        24        23        22     9      180.000000       -0.119672         4
        19        24        23        28     9        0.000000        0.056682         1
        19        24        23        28     9      180.000000        0.029063         2
        19        24        23        28     9        0.000000        0.464816         3
        19        24        23        28     9      180.000000        0.029460         4
        19        24        23        29     9        0.000000        0.056682         1
        19        24        23        29     9      180.000000        0.029063         2
        19        24        23        29     9        0.000000        0.464816         3
        19        24        23        29     9      180.000000        0.029460         4
        20        19        24        23     9        0.000000       -0.581697         1
        20        19        24        23     9      180.000000       -0.178850         2
        20        19        24        23     9        0.000000       -0.539812         3
        20        19        24        23     9      180.000000        0.228285         4
        20        19        24        30     9        0.000000        0.001137         1
        20        19        24        30     9      180.000000       -0.132140         2
        20        19        24        30     9        0.000000       -0.440824         3
        20        19        24        30     9      180.000000        0.030108         4
        20        19        24        31     9        0.000000        0.001137         1
        20        19        24        31     9      180.000000       -0.132140         2
        20        19        24        31     9        0.000000       -0.440824         3
        20        19        24        31     9      180.000000        0.030108         4
        20        21        22        23     9        0.000000        1.757084         1
        20        21        22        23     9      180.000000       -1.262017         2
        20        21        22        23     9        0.000000        0.610032         3
        20        21        22        23     9      180.000000       -0.013762         4
        20        21        22        25     9        0.000000        0.088848         1
        20        21        22        25     9      180.000000        0.098174         2
        20        21        22        25     9        0.000000        0.957104         3
        20        21        22        25     9      180.000000        0.111039         4
        21        20        19        24     9        0.000000        0.173945         1
        21        20        19        24     9      180.000000       16.682661         2
        21        20        19        24     9        0.000000       -0.531422         3
        21        20        19        24     9      180.000000       -0.483502         4
        21        22        23        24     9        0.000000        2.929372         1
        21        22        23        24     9      180.000000       -2.275396         2
        21        22        23        24     9        0.000000        0.136332         3
        21        22        23        24     9      180.000000        0.386228         4
        21        22        23        28     9        0.000000       -0.123649         1
        21        22        23        28     9      180.000000        0.088231         2
        21        22        23        28     9        0.000000        0.293555         3
        21        22        23        28     9      180.000000        0.009401         4
        21        22        23        29     9        0.000000       -0.123649         1
        21        22        23        29     9      180.000000        0.088231         2
        21        22        23        29     9        0.000000        0.293555         3
        21        22        23        29     9      180.000000        0.009401         4
        21        22        25        32     9        0.000000       -0.036256         1
        21        22        25        32     9      180.000000        0.018735         2
        21        22        25        32     9        0.000000        1.024067         3
        21        22        25        32     9      180.000000        0.001601         4
        21        22        25        33     9        0.000000       -0.036256         1
        21        22        25        33     9      180.000000        0.018735         2
        21        22        25        33     9        0.000000        1.024067         3
        21        22        25        33     9      180.000000        0.001601         4
        21        22        25        34     9        0.000000       -0.036256         1
        21        22        25        34     9      180.000000        0.018735         2
        21        22        25        34     9        0.000000        1.024067         3
        21        22        25        34     9      180.000000        0.001601         4
        22        23        24        30     9        0.000000       -0.054085         1
        22        23        24        30     9      180.000000        0.034526         2
        22        23        24        30     9        0.000000        0.373195         3
        22        23        24        30     9      180.000000        0.083514         4
        22        23        24        31     9        0.000000       -0.054085         1
        22        23        24        31     9      180.000000        0.034526         2
        22        23        24        31     9        0.000000        0.373195         3
        22        23        24        31     9      180.000000        0.083514         4
        23        22        21        26     9        0.000000       -0.029691         1
        23        22        21        26     9      180.000000        0.036400         2
        23        22        21        26     9        0.000000        0.631979         3
        23        22        21        26     9      180.000000        0.071457         4
        23        22        21        27     9        0.000000       -0.029691         1
        23        22        21        27     9      180.000000        0.036400         2
        23        22        21        27     9        0.000000        0.631979         3
        23        22        21        27     9      180.000000        0.071457         4
        23        22        25        32     9        0.000000       -0.014100         1
        23        22        25        32     9      180.000000        0.015343         2
        23        22        25        32     9        0.000000        0.884158         3
        23        22        25        32     9      180.000000        0.019132         4
        23        22        25        33     9        0.000000       -0.014100         1
        23        22        25        33     9      180.000000        0.015343         2
        23        22        25        33     9        0.000000        0.884158         3
        23        22        25        33     9      180.000000        0.019132         4
        23        22        25        34     9        0.000000       -0.014100         1
        23        22        25        34     9      180.000000        0.015343         2
        23        22        25        34     9        0.000000        0.884158         3
        23        22        25        34     9      180.000000        0.019132         4
        24        23        22        25     9        0.000000        1.698500         1
        24        23        22        25     9      180.000000       -0.487751         2
        24        23        22        25     9        0.000000        0.450767         3
        24        23        22        25     9      180.000000        0.246699         4
        25        22        21        26     9        0.000000        0.111988         1
        25        22        21        26     9      180.000000        0.004567         2
        25        22        21        26     9        0.000000        0.981665         3
        25        22        21        26     9      180.000000       -0.069874         4
        25        22        21        27     9        0.000000        0.111988         1
        25        22        21        27     9      180.000000        0.004567         2
        25        22        21        27     9        0.000000        0.981665         3
        25        22        21        27     9      180.000000       -0.069874         4
        25        22        23        28     9        0.000000       -0.115413         1
        25        22        23        28     9      180.000000       -0.101300         2
        25        22        23        28     9        0.000000        0.611434         3
        25        22        23        28     9      180.000000       -0.123227         4
        25        22        23        29     9        0.000000       -0.115413         1
        25        22        23        29     9      180.000000       -0.101300         2
        25        22        23        29     9        0.000000        0.611434         3
        25        22        23        29     9      180.000000       -0.123227         4
        28        23        24        30     9        0.000000       -0.014895         1
        28        23        24        30     9      180.000000       -0.022227         2
        28        23        24        30     9        0.000000        0.401862         3
        28        23        24        30     9      180.000000       -0.001746         4
        28        23        24        31     9        0.000000       -0.014895         1
        28        23        24        31     9      180.000000       -0.022227         2
        28        23        24        31     9        0.000000        0.401862         3
        28        23        24        31     9      180.000000       -0.001746         4
        29        23        24        30     9        0.000000       -0.014895         1
        29        23        24        30     9      180.000000       -0.022227         2
        29        23        24        30     9        0.000000        0.401862         3
        29        23        24        30     9      180.000000       -0.001746         4
        29        23        24        31     9        0.000000       -0.014895         1
        29        23        24        31     9      180.000000       -0.022227         2
        29        23        24        31     9        0.000000        0.401862         3
        29        23        24        31     9      180.000000       -0.001746         4
        35         7         6        40     9        0.000000        0.178565         1
        35         7         6        40     9      180.000000        0.124017         2
        35         7         6        40     9        0.000000        0.213224         3
        35         7         6        40     9      180.000000       -0.042705         4
        35         7         6        41     9        0.000000        0.178565         1
        35         7         6        41     9      180.000000        0.124017         2
        35         7         6        41     9        0.000000        0.213224         3
        35         7         6        41     9      180.000000       -0.042705         4
        35         7         8        43     9        0.000000        0.159078         1
        35         7         8        43     9      180.000000        0.098531         2
        35         7         8        43     9        0.000000        0.249228         3
        35         7         8        43     9      180.000000       -0.047820         4
        35         7         8        44     9        0.000000        0.159078         1
        35         7         8        44     9      180.000000        0.098531         2
        35         7         8        44     9        0.000000        0.249228         3
        35         7         8        44     9      180.000000       -0.047820         4
        35        37        38        47     9        0.000000       -0.008626         1
        35        37        38        47     9      180.000000        0.038862         2
        35        37        38        47     9        0.000000        0.235749         3
        35        37        38        47     9      180.000000        0.020475         4
        35        37        38        48     9        0.000000       -0.008626         1
        35        37        38        48     9      180.000000        0.038862         2
        35        37        38        48     9        0.000000        0.235749         3
        35        37        38        48     9      180.000000        0.020475         4
        35        37        38        49     9        0.000000       -0.008626         1
        35        37        38        49     9      180.000000        0.038862         2
        35        37        38        49     9        0.000000        0.235749         3
        35        37        38        49     9      180.000000        0.020475         4
        35        37        39        50     9        0.000000       -0.008626         1
        35        37        39        50     9      180.000000        0.038862         2
        35        37        39        50     9        0.000000        0.235749         3
        35        37        39        50     9      180.000000        0.020475         4
        35        37        39        51     9        0.000000       -0.008626         1
        35        37        39        51     9      180.000000        0.038862         2
        35        37        39        51     9        0.000000        0.235749         3
        35        37        39        51     9      180.000000        0.020475         4
        35        37        39        52     9        0.000000       -0.008626         1
        35        37        39        52     9      180.000000        0.038862         2
        35        37        39        52     9        0.000000        0.235749         3
        35        37        39        52     9      180.000000        0.020475         4
        36        35         7        42     9        0.000000        1.593583         1
        36        35         7        42     9      180.000000        0.703025         2
        36        35         7        42     9        0.000000        0.717740         3
        36        35         7        42     9      180.000000       -0.500486         4
        36        35        37        38     9        0.000000       -0.375518         1
        36        35        37        38     9      180.000000       13.044421         2
        36        35        37        38     9        0.000000       -1.547115         3
        36        35        37        38     9      180.000000       -0.087257         4
        36        35        37        39     9        0.000000       -0.375518         1
        36        35        37        39     9      180.000000       13.044421         2
        36        35        37        39     9        0.000000       -1.547115         3
        36        35        37        39     9      180.000000       -0.087257         4
        37        35         7        42     9        0.000000       -0.215324         1
        37        35         7        42     9      180.000000        0.004504         2
        37        35         7        42     9        0.000000       -0.151551         3
        37        35         7        42     9      180.000000       -0.047823         4
        38        37        39        50     9        0.000000       -0.024574         1
        38        37        39        50     9      180.000000        0.053683         2
        38        37        39        50     9        0.000000        1.208154         3
        38        37        39        50     9      180.000000        0.010416         4
        38        37        39        51     9        0.000000       -0.024574         1
        38        37        39        51     9      180.000000        0.053683         2
        38        37        39        51     9        0.000000        1.208154         3
        38        37        39        51     9      180.000000        0.010416         4
        38        37        39        52     9        0.000000       -0.024574         1
        38        37        39        52     9      180.000000        0.053683         2
        38        37        39        52     9        0.000000        1.208154         3
        38        37        39        52     9      180.000000        0.010416         4
        39        37        38        47     9        0.000000       -0.024574         1
        39        37        38        47     9      180.000000        0.053683         2
        39        37        38        47     9        0.000000        1.208154         3
        39        37        38        47     9      180.000000        0.010416         4
        39        37        38        48     9        0.000000       -0.024574         1
        39        37        38        48     9      180.000000        0.053683         2
        39        37        38        48     9        0.000000        1.208154         3
        39        37        38        48     9      180.000000        0.010416         4
        39        37        38        49     9        0.000000       -0.024574         1
        39        37        38        49     9      180.000000        0.053683         2
        39        37        38        49     9        0.000000        1.208154         3
        39        37        38        49     9      180.000000        0.010416         4
        40         6         5        53     9        0.000000        0.032125         1
        40         6         5        53     9      180.000000        0.014817         2
        40         6         5        53     9        0.000000        0.397995         3
        40         6         5        53     9      180.000000        0.013189         4
        40         6         7        42     9        0.000000        0.092902         1
        40         6         7        42     9      180.000000        0.093401         2
        40         6         7        42     9        0.000000        0.416253         3
        40         6         7        42     9      180.000000       -0.035407         4
        41         6         5        53     9        0.000000        0.032125         1
        41         6         5        53     9      180.000000        0.014817         2
        41         6         5        53     9        0.000000        0.397995         3
        41         6         5        53     9      180.000000        0.013189         4
        41         6         7        42     9        0.000000        0.092902         1
        41         6         7        42     9      180.000000        0.093401         2
        41         6         7        42     9        0.000000        0.416253         3
        41         6         7        42     9      180.000000       -0.035407         4
        42         7         8        43     9        0.000000        0.089169         1
        42         7         8        43     9      180.000000        0.058938         2
        42         7         8        43     9        0.000000        0.395713         3
        42         7         8        43     9      180.000000       -0.024133         4
        42         7         8        44     9        0.000000        0.089169         1
        42         7         8        44     9      180.000000        0.058938         2
        42         7         8        44     9        0.000000        0.395713         3
        42         7         8        44     9      180.000000       -0.024133         4
        43         8         9        45     9        0.000000        0.013436         1
        43         8         9        45     9      180.000000        0.010119         2
        43         8         9        45     9        0.000000        0.296255         3
        43         8         9        45     9      180.000000        0.044245         4
        43         8         9        46     9        0.000000        0.013436         1
        43         8         9        46     9      180.000000        0.010119         2
        43         8         9        46     9        0.000000        0.296255         3
        43         8         9        46     9      180.000000        0.044245         4
        44         8         9        45     9        0.000000        0.013436         1
        44         8         9        45     9      180.000000        0.010119         2
        44         8         9        45     9        0.000000        0.296255         3
        44         8         9        45     9      180.000000        0.044245         4
        44         8         9        46     9        0.000000        0.013436         1
        44         8         9        46     9      180.000000        0.010119         2
        44         8         9        46     9        0.000000        0.296255         3
        44         8         9        46     9      180.000000        0.044245         4
        54        55        57        58     9        0.000000       -0.015836         1
        54        55        57        58     9      180.000000       23.507510         2
        54        55        57        58     9        0.000000       -2.894565         3
        54        55        57        58     9      180.000000       -0.024958         4
        54        55        57        62     9        0.000000        0.049225         1
        54        55        57        62     9      180.000000       14.068415         2
        54        55        57        62     9        0.000000        0.153697         3
        54        55        57        62     9      180.000000       -0.108194         4
        54        56        58        57     9        0.000000       -0.702746         1
        54        56        58        57     9      180.000000       22.171939         2
        54        56        58        57     9        0.000000       -5.451789         3
        54        56        58        57     9      180.000000        0.176282         4
        54        56        58        59     9        0.000000       -0.582064         1
        54        56        58        59     9      180.000000        5.096975         2
        54        56        58        59     9        0.000000       -0.297385         3
        54        56        58        59     9      180.000000        0.191577         4
        55        54        56        58     9        0.000000        0.115143         1
        55        54        56        58     9      180.000000       29.225909         2
        55        54        56        58     9        0.000000       -5.851454         3
        55        54        56        58     9      180.000000       -0.660595         4
        55        57        58        56     9        0.000000       -0.237847         1
        55        57        58        56     9      180.000000       18.122900         2
        55        57        58        56     9        0.000000       -3.089129         3
        55        57        58        56     9      180.000000       -0.551264         4
        55        57        58        59     9        0.000000        0.048696         1
        55        57        58        59     9      180.000000       12.810065         2
        55        57        58        59     9        0.000000       -1.421806         3
        55        57        58        59     9      180.000000       -0.080449         4
        55        57        62        61     9        0.000000        0.009394         1
        55        57        62        61     9      180.000000       15.603774         2
        55        57        62        61     9        0.000000       -0.330164         3
        55        57        62        61     9      180.000000       -0.331980         4
        55        57        62        66     9        0.000000       -0.005656         1
        55        57        62        66     9      180.000000       12.806583         2
        55        57        62        66     9        0.000000       -0.443205         3
        55        57        62        66     9      180.000000        0.139820         4
        56        54        55        57     9        0.000000       -0.492832         1
        56        54        55        57     9      180.000000       35.750241         2
        56        54        55        57     9        0.000000       -3.224832         3
        56        54        55        57     9      180.000000       -0.212277         4
        56        58        57        62     9        0.000000        0.394491         1
        56        58        57        62     9      180.000000       12.566011         2
        56        58        57        62     9        0.000000       -0.853931         3
        56        58        57        62     9      180.000000       -0.238720         4
        56        58        59        60     9        0.000000        0.042065         1
        56        58        59        60     9      180.000000       13.861945         2
        56        58        59        60     9        0.000000       -0.241567         3
        56        58        59        60     9      180.000000       -0.143422         4
        56        58        59        63     9        0.000000       -0.143421         1
        56        58        59        63     9      180.000000       10.904491         2
        56        58        59        63     9        0.000000       -0.111844         3
        56        58        59        63     9      180.000000       -0.022680         4
        57        58        59        60     9        0.000000        0.009130         1
        57        58        59        60     9      180.000000       18.185045         2
        57        58        59        60     9        0.000000       -1.307151         3
        57        58        59        60     9      180.000000       -0.362407         4
        57        58        59        63     9        0.000000        0.264146         1
        57        58        59        63     9      180.000000       12.822999         2
        57        58        59        63     9        0.000000       -0.240217         3
        57        58        59        63     9      180.000000        0.064331         4
        57        62        61        60     9        0.000000       -0.287137         1
        57        62        61        60     9      180.000000       19.314478         2
        57        62        61        60     9        0.000000       -1.337688         3
        57        62        61        60     9      180.000000       -0.418888         4
        57        62        61        65     9        0.000000        0.293377         1
        57        62        61        65     9      180.000000       22.052603         2
        57        62        61        65     9        0.000000        0.439922         3
        57        62        61        65     9      180.000000       -0.934615         4
        58        57        62        61     9        0.000000       -0.273510         1
        58        57        62        61     9      180.000000       16.931993         2
        58        57        62        61     9        0.000000       -1.229056         3
        58        57        62        61     9      180.000000       -0.259692         4
        58        57        62        66     9        0.000000       -0.029476         1
        58        57        62        66     9      180.000000       12.880338         2
        58        57        62        66     9        0.000000       -0.383689         3
        58        57        62        66     9      180.000000        0.022184         4
        58        59        60        61     9        0.000000       -0.109202         1
        58        59        60        61     9      180.000000       19.874096         2
        58        59        60        61     9        0.000000       -1.602972         3
        58        59        60        61     9      180.000000       -0.455273         4
        58        59        60        64     9        0.000000        0.006452         1
        58        59        60        64     9      180.000000       15.701071         2
        58        59        60        64     9        0.000000       -0.564341         3
        58        59        60        64     9      180.000000        0.054668         4
        59        58        57        62     9        0.000000        0.104593         1
        59        58        57        62     9      180.000000       12.288736         2
        59        58        57        62     9        0.000000       -1.195854         3
        59        58        57        62     9      180.000000       -0.139359         4
        59        60        61        62     9        0.000000       -0.142909         1
        59        60        61        62     9      180.000000       16.506490         2
        59        60        61        62     9        0.000000       -1.184448         3
        59        60        61        62     9      180.000000       -0.265907         4
        59        60        61        65     9        0.000000        0.337626         1
        59        60        61        65     9      180.000000       17.692887         2
        59        60        61        65     9        0.000000        0.279389         3
        59        60        61        65     9      180.000000       -0.449754         4
        60        61        62        66     9        0.000000        0.033778         1
        60        61        62        66     9      180.000000       13.785400         2
        60        61        62        66     9        0.000000       -0.472946         3
        60        61        62        66     9      180.000000        0.102619         4
        61        60        59        63     9        0.000000        0.085668         1
        61        60        59        63     9      180.000000       14.584179         2
        61        60        59        63     9        0.000000       -0.422699         3
        61        60        59        63     9      180.000000        0.150399         4
        62        61        60        64     9        0.000000       -0.041449         1
        62        61        60        64     9      180.000000       13.002979         2
        62        61        60        64     9        0.000000       -0.608204         3
        62        61        60        64     9      180.000000        0.122273         4
        63        59        60        64     9        0.000000       -0.110765         1
        63        59        60        64     9      180.000000       12.056171         2
        63        59        60        64     9        0.000000       -0.743441         3
        63        59        60        64     9      180.000000        0.333437         4
        64        60        61        65     9        0.000000        0.187785         1
        64        60        61        65     9      180.000000       12.897055         2
        64        60        61        65     9        0.000000       -0.130317         3
        64        60        61        65     9      180.000000        0.221744         4
        65        61        62        66     9        0.000000        0.181809         1
        65        61        62        66     9      180.000000       14.020706         2
        65        61        62        66     9        0.000000       -0.105970         3
        65        61        62        66     9      180.000000        0.311125         4

[ dihedrals ] ; impropers
;       ai        aj        ak        al funct           phase               k        pn
         1         2         4        54     4      180.000000       11.773088         2
         1         4        54         2     4      180.000000       11.773088         2
         1        54         2         4     4      180.000000       11.773088         2
        11        10        12        13     4      180.000000       14.088156         2
        11        12        13        10     4      180.000000       14.088156         2
        11        13        10        12     4      180.000000       14.088156         2
        35         7        36        37     4      180.000000       15.867169         2
        35        36        37         7     4      180.000000       15.867169         2
        35        37         7        36     4      180.000000       15.867169         2

[ pairs ]
;       ai        aj funct
         1         5     1
         1         9     1
         1        17     1
         1        57     1
         1        58     1
         2         6     1
         2         8     1
         2        10     1
         2        45     1
         2        46     1
         2        53     1
         2        55     1
         2        56     1
         3         4     1
         3         7     1
         3        11     1
         3        18     1
         3        40     1
         3        41     1
         3        43     1
         3        44     1
         3        54     1
         4        16     1
         4        55     1
         4        56     1
         5         8     1
         5        12     1
         5        13     1
         5        16     1
         5        35     1
         5        42     1
         5        45     1
         5        46     1
         6         9     1
         6        11     1
         6        17     1
         6        18     1
         6        36     1
         6        37     1
         6        43     1
         6        44     1
         7        10     1
         7        38     1
         7        39     1
         7        45     1
         7        46     1
         7        53     1
         8        17     1
         8        36     1
         8        37     1
         8        40     1
         8        41     1
         9        10     1
         9        16     1
         9        35     1
         9        42     1
         9        53     1
        10        14     1
        10        15     1
        10        17     1
        10        40     1
        10        41     1
        11        19     1
        11        20     1
        11        53     1
        12        18     1
        12        21     1
        12        24     1
        13        14     1
        13        15     1
        13        18     1
        14        21     1
        14        23     1
        14        30     1
        14        31     1
        15        22     1
        15        24     1
        15        26     1
        15        27     1
        16        17     1
        16        54     1
        17        45     1
        17        46     1
        17        53     1
        18        53     1
        19        22     1
        19        26     1
        19        27     1
        19        28     1
        19        29     1
        20        23     1
        20        25     1
        20        30     1
        20        31     1
        21        24     1
        21        28     1
        21        29     1
        21        32     1
        21        33     1
        21        34     1
        22        30     1
        22        31     1
        23        26     1
        23        27     1
        23        32     1
        23        33     1
        23        34     1
        24        25     1
        25        26     1
        25        27     1
        25        28     1
        25        29     1
        28        30     1
        28        31     1
        29        30     1
        29        31     1
        35        40     1
        35        41     1
        35        43     1
        35        44     1
        35        47     1
        35        48     1
        35        49     1
        35        50     1
        35        51     1
        35        52     1
        36        38     1
        36        39     1
        36        42     1
        37        42     1
        38        50     1
        38        51     1
        38        52     1
        39        47     1
        39        48     1
        39        49     1
        40        42     1
        40        53     1
        41        42     1
        41        53     1
        42        43     1
        42        44     1
        43        45     1
        43        46     1
        44        45     1
        44        46     1
        54        59     1
        54        62     1
        55        59     1
        55        61     1
        55        66     1
        56        60     1
        56        62     1
        56        63     1
        57        60     1
        57        63     1
        57        65     1
        58        61     1
        58        64     1
        58        66     1
        59        62     1
        59        65     1
        60        66     1
        61        63     1
        62        64     1
        63        64     1
        64        65     1
        65        66     1
