; ITP file created by ByteFF-ML, 2025-12-06 08:04:52.840146

[ atomtypes ]
;name           bonded.type        at.num        mass        charge   ptype           sigma         epsilon
 c0bf                                   6      0.0000       0.00000       A     3.31434e-01     4.13115e-01
 n1bf                                   7      0.0000       0.00000       A     3.26849e-01     4.89508e-01
 c2bf                                   6      0.0000       0.00000       A     3.39786e-01     4.47693e-01
 o3bf                                   8      0.0000       0.00000       A     3.04722e-01     6.10589e-01
 c4bf                                   6      0.0000       0.00000       A     3.39957e-01     4.49241e-01
 c5bf                                   6      0.0000       0.00000       A     3.39695e-01     4.50020e-01
 c6bf                                   6      0.0000       0.00000       A     3.39807e-01     4.51065e-01
 c7bf                                   6      0.0000       0.00000       A     3.39783e-01     4.50599e-01
 c8bf                                   6      0.0000       0.00000       A     3.39769e-01     4.51274e-01
 n9bf                                   7      0.0000       0.00000       A     3.26602e-01     4.88281e-01
 c10bf                                  6      0.0000       0.00000       A     3.31258e-01     4.13621e-01
 c11bf                                  6      0.0000       0.00000       A     3.31371e-01     4.12927e-01
 o12bf                                  8      0.0000       0.00000       A     3.04582e-01     6.10219e-01
 n13bf                                  7      0.0000       0.00000       A     3.38377e-01     3.93517e-01
 s14bf                                 16      0.0000       0.00000       A     3.53468e-01     1.17897e+00
 h15bf                                  1      0.0000       0.00000       A     1.10529e-01     4.11419e-02
 h16bf                                  1      0.0000       0.00000       A     2.42166e-01     8.63681e-02
 h17bf                                  1      0.0000       0.00000       A     1.10612e-01     4.02241e-02
 c18bf                                  6      0.0000       0.00000       A     3.31347e-01     4.13267e-01
 c19bf                                  6      0.0000       0.00000       A     3.31421e-01     4.13824e-01
 c20bf                                  6      0.0000       0.00000       A     3.39969e-01     4.50893e-01
 n21bf                                  7      0.0000       0.00000       A     3.36930e-01     3.57427e-01
 c22bf                                  6      0.0000       0.00000       A     3.39827e-01     4.51767e-01
 c23bf                                  6      0.0000       0.00000       A     3.39882e-01     4.51317e-01
 c24bf                                  6      0.0000       0.00000       A     3.39758e-01     4.50040e-01
 h25bf                                  1      0.0000       0.00000       A     2.42170e-01     8.71342e-02
 h26bf                                  1      0.0000       0.00000       A     2.42170e-01     8.71342e-02
 h27bf                                  1      0.0000       0.00000       A     2.42257e-01     8.79530e-02
 h28bf                                  1      0.0000       0.00000       A     2.42257e-01     8.79530e-02
 h29bf                                  1      0.0000       0.00000       A     2.59883e-01     8.84270e-02
 h30bf                                  1      0.0000       0.00000       A     2.59883e-01     8.84270e-02
 h31bf                                  1      0.0000       0.00000       A     2.41989e-01     8.72555e-02
 h32bf                                  1      0.0000       0.00000       A     2.41989e-01     8.72555e-02
 h33bf                                  1      0.0000       0.00000       A     2.41989e-01     8.72555e-02
 c34bf                                  6      0.0000       0.00000       A     3.31656e-01     4.11194e-01
 o35bf                                  8      0.0000       0.00000       A     3.04848e-01     6.12895e-01
 n36bf                                  7      0.0000       0.00000       A     3.18436e-01     6.83644e-01
 c37bf                                  6      0.0000       0.00000       A     3.39787e-01     4.50128e-01
 c38bf                                  6      0.0000       0.00000       A     3.39787e-01     4.50128e-01
 h39bf                                  1      0.0000       0.00000       A     2.59758e-01     8.65469e-02
 h40bf                                  1      0.0000       0.00000       A     2.59758e-01     8.65469e-02
 h41bf                                  1      0.0000       0.00000       A     2.59710e-01     8.69571e-02
 h42bf                                  1      0.0000       0.00000       A     2.59950e-01     8.71566e-02
 h43bf                                  1      0.0000       0.00000       A     2.59950e-01     8.71566e-02
 h44bf                                  1      0.0000       0.00000       A     2.59873e-01     8.66777e-02
 h45bf                                  1      0.0000       0.00000       A     2.59873e-01     8.66777e-02
 h46bf                                  1      0.0000       0.00000       A     2.42033e-01     8.76162e-02
 h47bf                                  1      0.0000       0.00000       A     2.42033e-01     8.76162e-02
 h48bf                                  1      0.0000       0.00000       A     2.42033e-01     8.76162e-02
 h49bf                                  1      0.0000       0.00000       A     2.42033e-01     8.76162e-02
 h50bf                                  1      0.0000       0.00000       A     2.42033e-01     8.76162e-02
 h51bf                                  1      0.0000       0.00000       A     2.42033e-01     8.76162e-02
 h52bf                                  1      0.0000       0.00000       A     2.42061e-01     8.64671e-02
 c53bf                                  6      0.0000       0.00000       A     3.31468e-01     4.11532e-01
 c54bf                                  6      0.0000       0.00000       A     3.31279e-01     4.12485e-01
 n55bf                                  7      0.0000       0.00000       A     3.20263e-01     8.55616e-01
 h56bf                                  1      0.0000       0.00000       A     2.62841e-01     6.74563e-02
 h57bf                                  1      0.0000       0.00000       A     1.10878e-01     4.20548e-02
 c58bf                                  6      0.0000       0.00000       A     3.31382e-01     4.13519e-01
 c59bf                                  6      0.0000       0.00000       A     3.31678e-01     4.11538e-01
 c60bf                                  6      0.0000       0.00000       A     3.31305e-01     4.13149e-01
 c61bf                                  6      0.0000       0.00000       A     3.31495e-01     4.11960e-01
 c62bf                                  6      0.0000       0.00000       A     3.31440e-01     4.12659e-01
 n63bf                                  7      0.0000       0.00000       A     3.38510e-01     3.90363e-01
 h64bf                                  1      0.0000       0.00000       A     2.62405e-01     6.69583e-02
 h65bf                                  1      0.0000       0.00000       A     2.62509e-01     6.73062e-02
 cl66bf                                17      0.0000       0.00000       A     3.46807e-01     1.10635e+00

[ moleculetype ]
;name             nrexcl
 8g                    3

[ atoms ]
;       nr            type      resi   res      atom      cgnr      charge          mass ; qtot
         1            c0bf         1   UNL        c0         1     0.63128       12.0110 ; qtot    0.631
         2            n1bf         1   UNL        n1         2    -0.49288       14.0070 ; qtot    0.138
         3            c2bf         1   UNL        c2         3     0.09427       12.0110 ; qtot    0.233
         4            o3bf         1   UNL        o3         4    -0.59432       15.9990 ; qtot   -0.362
         5            c4bf         1   UNL        c4         5     0.09862       12.0110 ; qtot   -0.263
         6            c5bf         1   UNL        c5         6    -0.07596       12.0110 ; qtot   -0.339
         7            c6bf         1   UNL        c6         7    -0.13491       12.0110 ; qtot   -0.474
         8            c7bf         1   UNL        c7         8    -0.06729       12.0110 ; qtot   -0.541
         9            c8bf         1   UNL        c8         9    -0.08789       12.0110 ; qtot   -0.629
        10            n9bf         1   UNL        n9        10    -0.49009       14.0070 ; qtot   -1.119
        11           c10bf         1   UNL       c10        11     0.53549       12.0110 ; qtot   -0.584
        12           c11bf         1   UNL       c11        12     0.38153       12.0110 ; qtot   -0.202
        13           o12bf         1   UNL       o12        13    -0.58023       15.9990 ; qtot   -0.782
        14           n13bf         1   UNL       n13        14    -0.61219       14.0070 ; qtot   -1.395
        15           s14bf         1   UNL       s14        15     0.02030       32.0670 ; qtot   -1.374
        16           h15bf         1   UNL       h15        16     0.32204        1.0080 ; qtot   -1.052
        17           h16bf         1   UNL       h16        17     0.07701        1.0080 ; qtot   -0.975
        18           h17bf         1   UNL       h17        18     0.34007        1.0080 ; qtot   -0.635
        19           c18bf         1   UNL       c18        19     0.28744       12.0110 ; qtot   -0.348
        20           c19bf         1   UNL       c19        20    -0.23576       12.0110 ; qtot   -0.583
        21           c20bf         1   UNL       c20        21     0.24225       12.0110 ; qtot   -0.341
        22           n21bf         1   UNL       n21        22    -0.71279       14.0070 ; qtot   -1.054
        23           c22bf         1   UNL       c22        23     0.15975       12.0110 ; qtot   -0.894
        24           c23bf         1   UNL       c23        24    -0.11333       12.0110 ; qtot   -1.008
        25           c24bf         1   UNL       c24        25     0.14641       12.0110 ; qtot   -0.861
        26           h25bf         1   UNL       h25        26     0.05577        1.0080 ; qtot   -0.805
        27           h26bf         1   UNL       h26        27     0.05577        1.0080 ; qtot   -0.750
        28           h27bf         1   UNL       h27        28     0.04433        1.0080 ; qtot   -0.705
        29           h28bf         1   UNL       h28        29     0.04433        1.0080 ; qtot   -0.661
        30           h29bf         1   UNL       h29        30     0.06561        1.0080 ; qtot   -0.595
        31           h30bf         1   UNL       h30        31     0.06561        1.0080 ; qtot   -0.530
        32           h31bf         1   UNL       h31        32     0.03413        1.0080 ; qtot   -0.496
        33           h32bf         1   UNL       h32        33     0.03413        1.0080 ; qtot   -0.462
        34           h33bf         1   UNL       h33        34     0.03413        1.0080 ; qtot   -0.427
        35           c34bf         1   UNL       c34        35     0.60518       12.0110 ; qtot    0.178
        36           o35bf         1   UNL       o35        36    -0.60574       15.9990 ; qtot   -0.428
        37           n36bf         1   UNL       n36        37    -0.42066       14.0070 ; qtot   -0.849
        38           c37bf         1   UNL       c37        38     0.08301       12.0110 ; qtot   -0.766
        39           c38bf         1   UNL       c38        39     0.08301       12.0110 ; qtot   -0.683
        40           h39bf         1   UNL       h39        40     0.06130        1.0080 ; qtot   -0.621
        41           h40bf         1   UNL       h40        41     0.06130        1.0080 ; qtot   -0.560
        42           h41bf         1   UNL       h41        42     0.06316        1.0080 ; qtot   -0.497
        43           h42bf         1   UNL       h42        43     0.05027        1.0080 ; qtot   -0.447
        44           h43bf         1   UNL       h43        44     0.05027        1.0080 ; qtot   -0.396
        45           h44bf         1   UNL       h44        45     0.05508        1.0080 ; qtot   -0.341
        46           h45bf         1   UNL       h45        46     0.05508        1.0080 ; qtot   -0.286
        47           h46bf         1   UNL       h46        47     0.04477        1.0080 ; qtot   -0.241
        48           h47bf         1   UNL       h47        48     0.04477        1.0080 ; qtot   -0.197
        49           h48bf         1   UNL       h48        49     0.04477        1.0080 ; qtot   -0.152
        50           h49bf         1   UNL       h49        50     0.04477        1.0080 ; qtot   -0.107
        51           h50bf         1   UNL       h50        51     0.04477        1.0080 ; qtot   -0.062
        52           h51bf         1   UNL       h51        52     0.04477        1.0080 ; qtot   -0.017
        53           h52bf         1   UNL       h52        53     0.07783        1.0080 ; qtot    0.060
        54           c53bf         1   UNL       c53        54    -0.13621       12.0110 ; qtot   -0.076
        55           c54bf         1   UNL       c54        55    -0.26838       12.0110 ; qtot   -0.344
        56           n55bf         1   UNL       n55        56    -0.20760       14.0070 ; qtot   -0.552
        57           h56bf         1   UNL       h56        57     0.22356        1.0080 ; qtot   -0.328
        58           h57bf         1   UNL       h57        58     0.36500        1.0080 ; qtot    0.037
        59           c58bf         1   UNL       c58        59     0.32587       12.0110 ; qtot    0.363
        60           c59bf         1   UNL       c59        60    -0.07587       12.0110 ; qtot    0.287
        61           c60bf         1   UNL       c60        61    -0.07646       12.0110 ; qtot    0.210
        62           c61bf         1   UNL       c61        62    -0.13158       12.0110 ; qtot    0.079
        63           c62bf         1   UNL       c62        63     0.43318       12.0110 ; qtot    0.512
        64           n63bf         1   UNL       n63        64    -0.60003       14.0070 ; qtot   -0.088
        65           h64bf         1   UNL       h64        65     0.12936        1.0080 ; qtot    0.041
        66           h65bf         1   UNL       h65        66     0.14127        1.0080 ; qtot    0.182
        67          cl66bf         1   UNL      cl66        67    -0.18245       35.4530 ; qtot   -0.000

[ bonds ]
;       ai        aj funct               r               k
         1         2     1        0.136815   299870.426172
         1         4     1        0.123540   580573.821680
         1        54     1        0.148364   195324.488232
         2         3     1        0.146487   189813.516187
         2        16     1        0.101261   416255.291406
         3         5     1        0.154754   156747.773291
         3         9     1        0.153876   173032.736865
         3        17     1        0.109304   301484.243799
         5         6     1        0.153891   171747.952124
         5        10     1        0.146252   191021.906665
         5        53     1        0.109291   301684.863330
         6         7     1        0.154579   164893.255688
         6        40     1        0.109326   300596.548340
         6        41     1        0.109326   300596.548340
         7         8     1        0.154661   163666.440186
         7        35     1        0.153191   158389.860498
         7        42     1        0.109414   302100.760693
         8         9     1        0.153693   181135.763818
         8        43     1        0.109447   297470.142188
         8        44     1        0.109447   297470.142188
         9        45     1        0.109409   298760.123730
         9        46     1        0.109409   298760.123730
        10        11     1        0.136095   315450.182471
        10        18     1        0.101409   412617.504639
        11        12     1        0.149761   181928.231396
        11        13     1        0.123205   595504.348047
        12        14     1        0.130744   394780.497705
        12        15     1        0.175753   114860.631787
        14        19     1        0.137483   250388.573877
        15        20     1        0.173418   163411.809668
        19        20     1        0.137232   358668.241504
        19        24     1        0.150284   209899.921094
        20        21     1        0.150545   205958.217187
        21        22     1        0.146468   191918.016602
        21        26     1        0.110015   279945.275342
        21        27     1        0.110015   279945.275342
        22        23     1        0.146781   189560.941406
        22        25     1        0.146077   206296.839258
        23        24     1        0.153813   178870.826514
        23        28     1        0.109814   285833.060205
        23        29     1        0.109814   285833.060205
        24        30     1        0.109539   296322.146973
        24        31     1        0.109539   296322.146973
        25        32     1        0.109765   288786.145996
        25        33     1        0.109765   288786.145996
        25        34     1        0.109765   288786.145996
        35        36     1        0.123512   586720.450684
        35        37     1        0.137606   276714.984229
        37        38     1        0.145947   208517.507983
        37        39     1        0.145947   208517.507983
        38        47     1        0.109324   300806.693213
        38        48     1        0.109324   300806.693213
        38        49     1        0.109324   300806.693213
        39        50     1        0.109324   300806.693213
        39        51     1        0.109324   300806.693213
        39        52     1        0.109324   300806.693213
        54        55     1        0.138195   357751.050684
        54        56     1        0.138940   268721.843457
        55        57     1        0.108063   340146.635742
        55        59     1        0.143241   249649.632080
        56        58     1        0.101151   426502.950342
        56        60     1        0.137613   284556.894238
        59        60     1        0.142795   227963.314502
        59        64     1        0.134937   301116.969092
        60        61     1        0.139701   314265.286133
        61        62     1        0.139354   322564.948828
        61        65     1        0.108603   320492.918848
        62        63     1        0.141345   256503.817773
        62        66     1        0.108360   328622.938525
        63        64     1        0.131242   347376.957520
        63        67     1        0.176689   124596.859033

[ angles ]
;       ai        aj        ak funct           theta             cth
         1         2         3     1      122.599319      526.180711
         1         2        16     1      117.750732      426.157216
         1        54        55     1      131.364380      429.715493
         1        54        56     1      118.950211      422.420626
         2         1         4     1      123.472557      599.330420
         2         1        54     1      115.473679      477.157888
         2         3         5     1      111.228127      549.042106
         2         3         9     1      111.634178      627.124627
         2         3        17     1      106.332413      526.600924
         3         2        16     1      115.885094      417.588590
         3         5         6     1      110.943848      561.803638
         3         5        10     1      111.225845      548.786224
         3         5        53     1      107.770432      470.882399
         3         9         8     1      111.599037      623.546303
         3         9        45     1      108.995728      497.501516
         3         9        46     1      108.995728      497.501516
         4         1        54     1      120.818970      582.456839
         5         3         9     1      110.846291      555.882667
         5         3        17     1      107.675941      473.198966
         5         6         7     1      111.940201      596.811376
         5         6        40     1      109.081688      493.138117
         5         6        41     1      109.081688      493.138117
         5        10        11     1      123.287148      523.560284
         5        10        18     1      117.982994      388.331235
         6         5        10     1      111.415794      612.989071
         6         5        53     1      108.670311      471.698086
         6         7         8     1      110.560959      569.917990
         6         7        35     1      110.802452      642.130488
         6         7        42     1      107.640671      495.211858
         7         6        40     1      109.789185      465.155383
         7         6        41     1      109.789185      465.155383
         7         8         9     1      111.600388      627.192045
         7         8        43     1      109.459435      468.787845
         7         8        44     1      109.459435      468.787845
         7        35        36     1      120.367775      453.866799
         7        35        37     1      118.348633      449.080890
         8         7        35     1      111.026161      653.509377
         8         7        42     1      107.798851      493.236244
         8         9        45     1      109.995155      502.450863
         8         9        46     1      109.995140      502.450863
         9         3        17     1      108.802162      472.086059
         9         8        43     1      109.710251      513.187717
         9         8        44     1      109.710251      513.187717
        10         5        53     1      106.367630      527.615386
        10        11        12     1      114.245560      430.111414
        10        11        13     1      124.890869      615.174089
        11        10        18     1      117.270615      420.964947
        11        12        14     1      124.340652      359.309363
        11        12        15     1      120.844772      468.365589
        12        11        13     1      120.964073      537.680773
        12        14        19     1      111.406593      328.705787
        12        15        20     1       88.551132      167.360000
        14        12        15     1      114.891418      167.360000
        14        19        20     1      115.272217      312.892188
        14        19        24     1      122.848999      461.667684
        15        20        19     1      110.263878      167.360000
        15        20        21     1      125.788002      401.332369
        19        20        21     1      123.996292      562.620314
        19        24        23     1      109.429955      644.587349
        19        24        30     1      109.759384      484.571854
        19        24        31     1      109.759384      484.571854
        20        19        24     1      121.676254      406.530862
        20        21        22     1      110.200546      563.933816
        20        21        26     1      110.205734      462.983196
        20        21        27     1      110.205734      462.983196
        21        22        23     1      111.045578      613.756014
        21        22        25     1      111.203835      630.245325
        22        21        26     1      109.551048      459.134690
        22        21        27     1      109.551048      459.134690
        22        23        24     1      112.270889      625.644432
        22        23        28     1      109.041969      476.770682
        22        23        29     1      109.041969      476.770682
        22        25        32     1      110.858498      481.423224
        22        25        33     1      110.858498      481.423224
        22        25        34     1      110.858498      481.423224
        23        22        25     1      112.192528      649.121399
        23        24        30     1      110.261795      502.853519
        23        24        31     1      110.261795      502.853519
        24        23        28     1      109.631447      493.664916
        24        23        29     1      109.631447      493.664916
        26        21        27     1      106.585083      354.341693
        28        23        29     1      107.114723      348.812845
        30        24        31     1      106.901878      363.316136
        32        25        33     1      108.062943      347.504005
        32        25        34     1      108.062943      347.504005
        33        25        34     1      108.062943      347.504005
        35         7        42     1      108.212730      515.178845
        35        37        38     1      122.129654      505.902714
        35        37        39     1      122.129654      505.902714
        36        35        37     1      121.081711      636.267423
        37        38        47     1      110.326584      477.859329
        37        38        48     1      110.326584      477.859265
        37        38        49     1      110.326584      477.859265
        37        39        50     1      110.326584      477.859265
        37        39        51     1      110.326584      477.859265
        37        39        52     1      110.326584      477.859265
        38        37        39     1      114.947632      573.331217
        40         6        41     1      107.084274      355.159487
        43         8        44     1      106.645180      359.821255
        45         9        46     1      106.834862      356.409369
        47        38        48     1      108.724693      349.793087
        47        38        49     1      108.724693      349.793087
        48        38        49     1      108.724693      349.793087
        50        39        51     1      108.724693      349.793087
        50        39        52     1      108.724693      349.793087
        51        39        52     1      108.724693      349.793087
        54        55        57     1      126.889320      386.408865
        54        55        59     1      106.820999      464.841596
        54        56        58     1      122.407204      366.651059
        54        56        60     1      109.076843      416.179453
        55        54        56     1      109.326500      167.360000
        55        59        60     1      107.380844      391.425822
        55        59        64     1      129.618713      416.632577
        56        60        59     1      107.423141      277.863605
        56        60        61     1      132.763885      453.161464
        57        55        59     1      126.858376      393.838089
        58        56        60     1      126.856544      388.458154
        59        60        61     1      119.977760      654.442056
        59        64        63     1      115.855263      416.085668
        60        59        64     1      123.166344      745.679699
        60        61        62     1      116.491470      858.093863
        60        61        65     1      122.483109      442.664755
        61        62        63     1      118.809036      573.771604
        61        62        66     1      121.273376      421.565612
        62        61        65     1      120.941017      439.256572
        62        63        64     1      125.751503      619.096462
        62        63        67     1      117.487793      344.461322
        63        62        66     1      120.087769      444.052952
        64        63        67     1      116.744041      416.054225

[ dihedrals ] ; propers for gromacs 4.5 or higher, use funct 9
;       ai        aj        ak        al funct           phase               k        pn
         1         2         3         5     9        0.000000        1.481395         1
         1         2         3         5     9      180.000000       -0.743158         2
         1         2         3         5     9        0.000000        0.460653         3
         1         2         3         5     9      180.000000        0.208692         4
         1         2         3         9     9        0.000000        0.103712         1
         1         2         3         9     9      180.000000       -0.322906         2
         1         2         3         9     9        0.000000        0.559451         3
         1         2         3         9     9      180.000000        0.006302         4
         1         2         3        17     9        0.000000       -0.160944         1
         1         2         3        17     9      180.000000        0.243369         2
         1         2         3        17     9        0.000000        0.369413         3
         1         2         3        17     9      180.000000        0.117316         4
         1        54        55        57     9        0.000000       -0.023522         1
         1        54        55        57     9      180.000000       11.946162         2
         1        54        55        57     9        0.000000       -0.185726         3
         1        54        55        57     9      180.000000       -0.032075         4
         1        54        55        59     9        0.000000        0.685550         1
         1        54        55        59     9      180.000000       16.557534         2
         1        54        55        59     9        0.000000       -0.430006         3
         1        54        55        59     9      180.000000       -0.899570         4
         1        54        56        58     9        0.000000       -0.263805         1
         1        54        56        58     9      180.000000        1.182628         2
         1        54        56        58     9        0.000000        0.156505         3
         1        54        56        58     9      180.000000        0.002119         4
         1        54        56        60     9        0.000000        0.611053         1
         1        54        56        60     9      180.000000        7.057929         2
         1        54        56        60     9        0.000000        0.621294         3
         1        54        56        60     9      180.000000       -0.226511         4
         2         1        54        55     9        0.000000        0.903966         1
         2         1        54        55     9      180.000000        2.566735         2
         2         1        54        55     9        0.000000        0.510765         3
         2         1        54        55     9      180.000000       -0.591538         4
         2         1        54        56     9        0.000000        0.783483         1
         2         1        54        56     9      180.000000        5.323678         2
         2         1        54        56     9        0.000000        0.067902         3
         2         1        54        56     9      180.000000       -0.191220         4
         2         3         5         6     9        0.000000       -0.613544         1
         2         3         5         6     9      180.000000        0.070368         2
         2         3         5         6     9        0.000000        0.016086         3
         2         3         5         6     9      180.000000        0.312058         4
         2         3         5        10     9        0.000000        2.805439         1
         2         3         5        10     9      180.000000        0.064785         2
         2         3         5        10     9        0.000000       -0.516705         3
         2         3         5        10     9      180.000000        0.025065         4
         2         3         5        53     9        0.000000       -0.539031         1
         2         3         5        53     9      180.000000        0.059196         2
         2         3         5        53     9        0.000000        0.357482         3
         2         3         5        53     9      180.000000       -0.021781         4
         2         3         9         8     9        0.000000       -0.257131         1
         2         3         9         8     9      180.000000        0.591022         2
         2         3         9         8     9        0.000000        0.132893         3
         2         3         9         8     9      180.000000        0.178872         4
         2         3         9        45     9        0.000000        0.020520         1
         2         3         9        45     9      180.000000        0.097673         2
         2         3         9        45     9        0.000000        0.352374         3
         2         3         9        45     9      180.000000       -0.071039         4
         2         3         9        46     9        0.000000        0.020520         1
         2         3         9        46     9      180.000000        0.097673         2
         2         3         9        46     9        0.000000        0.352374         3
         2         3         9        46     9      180.000000       -0.071039         4
         3         2         1         4     9        0.000000       -1.322504         1
         3         2         1         4     9      180.000000        8.776193         2
         3         2         1         4     9        0.000000        0.489827         3
         3         2         1         4     9      180.000000       -0.786992         4
         3         2         1        54     9        0.000000        3.100256         1
         3         2         1        54     9      180.000000       11.397403         2
         3         2         1        54     9        0.000000        1.062863         3
         3         2         1        54     9      180.000000       -0.158720         4
         3         5         6         7     9        0.000000        3.508533         1
         3         5         6         7     9      180.000000       -1.759481         2
         3         5         6         7     9        0.000000       -0.098784         3
         3         5         6         7     9      180.000000        0.006198         4
         3         5         6        40     9        0.000000       -0.087531         1
         3         5         6        40     9      180.000000        0.062399         2
         3         5         6        40     9        0.000000        0.167274         3
         3         5         6        40     9      180.000000        0.046439         4
         3         5         6        41     9        0.000000       -0.087531         1
         3         5         6        41     9      180.000000        0.062399         2
         3         5         6        41     9        0.000000        0.167274         3
         3         5         6        41     9      180.000000        0.046439         4
         3         5        10        11     9        0.000000        1.056143         1
         3         5        10        11     9      180.000000       -0.426435         2
         3         5        10        11     9        0.000000        0.338458         3
         3         5        10        11     9      180.000000        0.176767         4
         3         5        10        18     9        0.000000        0.646564         1
         3         5        10        18     9      180.000000       -1.082055         2
         3         5        10        18     9        0.000000        0.541931         3
         3         5        10        18     9      180.000000        0.020902         4
         3         9         8         7     9        0.000000        1.264740         1
         3         9         8         7     9      180.000000       -1.620351         2
         3         9         8         7     9        0.000000        0.192925         3
         3         9         8         7     9      180.000000        0.077274         4
         3         9         8        43     9        0.000000       -0.092629         1
         3         9         8        43     9      180.000000        0.066268         2
         3         9         8        43     9        0.000000        0.235005         3
         3         9         8        43     9      180.000000        0.022199         4
         3         9         8        44     9        0.000000       -0.092629         1
         3         9         8        44     9      180.000000        0.066268         2
         3         9         8        44     9        0.000000        0.235005         3
         3         9         8        44     9      180.000000        0.022199         4
         4         1         2        16     9        0.000000       -0.238926         1
         4         1         2        16     9      180.000000       10.638252         2
         4         1         2        16     9        0.000000        0.275123         3
         4         1         2        16     9      180.000000        0.397441         4
         4         1        54        55     9        0.000000       -3.232982         1
         4         1        54        55     9      180.000000        3.120219         2
         4         1        54        55     9        0.000000        0.185961         3
         4         1        54        55     9      180.000000        0.011256         4
         4         1        54        56     9        0.000000        0.973481         1
         4         1        54        56     9      180.000000        5.341054         2
         4         1        54        56     9        0.000000        0.069222         3
         4         1        54        56     9      180.000000        0.121848         4
         5         3         2        16     9        0.000000        0.849529         1
         5         3         2        16     9      180.000000       -1.051180         2
         5         3         2        16     9        0.000000        0.652181         3
         5         3         2        16     9      180.000000        0.055015         4
         5         3         9         8     9        0.000000        2.718239         1
         5         3         9         8     9      180.000000       -1.619708         2
         5         3         9         8     9        0.000000        0.048894         3
         5         3         9         8     9      180.000000        0.055771         4
         5         3         9        45     9        0.000000       -0.095906         1
         5         3         9        45     9      180.000000        0.058960         2
         5         3         9        45     9        0.000000        0.178007         3
         5         3         9        45     9      180.000000        0.056484         4
         5         3         9        46     9        0.000000       -0.095906         1
         5         3         9        46     9      180.000000        0.058960         2
         5         3         9        46     9        0.000000        0.178007         3
         5         3         9        46     9      180.000000        0.056484         4
         5         6         7         8     9        0.000000        2.165031         1
         5         6         7         8     9      180.000000       -2.097222         2
         5         6         7         8     9        0.000000        0.100591         3
         5         6         7         8     9      180.000000       -0.066916         4
         5         6         7        35     9        0.000000       -0.983937         1
         5         6         7        35     9      180.000000       -0.488697         2
         5         6         7        35     9        0.000000        0.042854         3
         5         6         7        35     9      180.000000        0.043589         4
         5         6         7        42     9        0.000000       -0.730470         1
         5         6         7        42     9      180.000000        0.097424         2
         5         6         7        42     9        0.000000        0.165336         3
         5         6         7        42     9      180.000000        0.052036         4
         5        10        11        12     9        0.000000        1.555928         1
         5        10        11        12     9      180.000000       10.814282         2
         5        10        11        12     9        0.000000        0.661597         3
         5        10        11        12     9      180.000000       -0.283510         4
         5        10        11        13     9        0.000000       -0.697008         1
         5        10        11        13     9      180.000000       10.165090         2
         5        10        11        13     9        0.000000        0.481442         3
         5        10        11        13     9      180.000000       -1.333102         4
         6         5         3         9     9        0.000000        3.340036         1
         6         5         3         9     9      180.000000       -1.604247         2
         6         5         3         9     9        0.000000        0.097314         3
         6         5         3         9     9      180.000000       -0.012729         4
         6         5         3        17     9        0.000000       -0.372939         1
         6         5         3        17     9      180.000000        0.082833         2
         6         5         3        17     9        0.000000        0.300425         3
         6         5         3        17     9      180.000000        0.058440         4
         6         5        10        11     9        0.000000        0.002927         1
         6         5        10        11     9      180.000000       -0.404022         2
         6         5        10        11     9        0.000000        0.371083         3
         6         5        10        11     9      180.000000        0.052955         4
         6         5        10        18     9        0.000000       -0.144735         1
         6         5        10        18     9      180.000000       -0.350990         2
         6         5        10        18     9        0.000000        0.351412         3
         6         5        10        18     9      180.000000       -0.039177         4
         6         7         8         9     9        0.000000        0.883255         1
         6         7         8         9     9      180.000000       -1.399723         2
         6         7         8         9     9        0.000000        0.313351         3
         6         7         8         9     9      180.000000       -0.050724         4
         6         7         8        43     9        0.000000       -0.056826         1
         6         7         8        43     9      180.000000        0.050149         2
         6         7         8        43     9        0.000000        0.270717         3
         6         7         8        43     9      180.000000        0.019384         4
         6         7         8        44     9        0.000000       -0.056826         1
         6         7         8        44     9      180.000000        0.050149         2
         6         7         8        44     9        0.000000        0.270717         3
         6         7         8        44     9      180.000000        0.019384         4
         6         7        35        36     9        0.000000       -0.455386         1
         6         7        35        36     9      180.000000        0.737900         2
         6         7        35        36     9        0.000000        0.287526         3
         6         7        35        36     9      180.000000        0.250951         4
         6         7        35        37     9        0.000000        0.270994         1
         6         7        35        37     9      180.000000        1.080078         2
         6         7        35        37     9        0.000000       -0.027563         3
         6         7        35        37     9      180.000000        0.001527         4
         7         6         5        10     9        0.000000       -0.371142         1
         7         6         5        10     9      180.000000        0.220404         2
         7         6         5        10     9        0.000000        0.058079         3
         7         6         5        10     9      180.000000        0.224988         4
         7         6         5        53     9        0.000000       -0.669148         1
         7         6         5        53     9      180.000000        0.139992         2
         7         6         5        53     9        0.000000        0.154327         3
         7         6         5        53     9      180.000000        0.076148         4
         7         8         9        45     9        0.000000       -0.081149         1
         7         8         9        45     9      180.000000        0.083136         2
         7         8         9        45     9        0.000000        0.213491         3
         7         8         9        45     9      180.000000        0.012123         4
         7         8         9        46     9        0.000000       -0.081149         1
         7         8         9        46     9      180.000000        0.083136         2
         7         8         9        46     9        0.000000        0.213491         3
         7         8         9        46     9      180.000000        0.012123         4
         7        35        37        38     9        0.000000        7.685850         1
         7        35        37        38     9      180.000000       10.413246         2
         7        35        37        38     9        0.000000        0.340038         3
         7        35        37        38     9      180.000000       -0.442447         4
         7        35        37        39     9        0.000000        7.685850         1
         7        35        37        39     9      180.000000       10.413246         2
         7        35        37        39     9        0.000000        0.340038         3
         7        35        37        39     9      180.000000       -0.442447         4
         8         7         6        40     9        0.000000       -0.052172         1
         8         7         6        40     9      180.000000        0.058083         2
         8         7         6        40     9        0.000000        0.229959         3
         8         7         6        40     9      180.000000        0.057798         4
         8         7         6        41     9        0.000000       -0.052172         1
         8         7         6        41     9      180.000000        0.058083         2
         8         7         6        41     9        0.000000        0.229959         3
         8         7         6        41     9      180.000000        0.057798         4
         8         7        35        36     9        0.000000       -0.698289         1
         8         7        35        36     9      180.000000        0.744054         2
         8         7        35        36     9        0.000000        0.336890         3
         8         7        35        36     9      180.000000        0.225666         4
         8         7        35        37     9        0.000000        0.291846         1
         8         7        35        37     9      180.000000        1.098654         2
         8         7        35        37     9        0.000000        0.042828         3
         8         7        35        37     9      180.000000       -0.012816         4
         8         9         3        17     9        0.000000       -0.422717         1
         8         9         3        17     9      180.000000        0.170287         2
         8         9         3        17     9        0.000000        0.248151         3
         8         9         3        17     9      180.000000        0.027552         4
         9         3         2        16     9        0.000000        0.141029         1
         9         3         2        16     9      180.000000       -0.021135         2
         9         3         2        16     9        0.000000        0.451578         3
         9         3         2        16     9      180.000000       -0.008177         4
         9         3         5        10     9        0.000000       -0.464824         1
         9         3         5        10     9      180.000000        0.259920         2
         9         3         5        10     9        0.000000        0.145208         3
         9         3         5        10     9      180.000000        0.204579         4
         9         3         5        53     9        0.000000       -0.387930         1
         9         3         5        53     9      180.000000        0.126094         2
         9         3         5        53     9        0.000000        0.325922         3
         9         3         5        53     9      180.000000        0.047195         4
         9         8         7        35     9        0.000000       -1.214715         1
         9         8         7        35     9      180.000000       -0.026304         2
         9         8         7        35     9        0.000000        0.125444         3
         9         8         7        35     9      180.000000        0.097348         4
         9         8         7        42     9        0.000000       -0.470240         1
         9         8         7        42     9      180.000000        0.119524         2
         9         8         7        42     9        0.000000        0.267326         3
         9         8         7        42     9      180.000000        0.031749         4
        10         5         3        17     9        0.000000       -0.409676         1
        10         5         3        17     9      180.000000        0.007963         2
        10         5         3        17     9        0.000000        0.352618         3
        10         5         3        17     9      180.000000       -0.006126         4
        10         5         6        40     9        0.000000        0.121999         1
        10         5         6        40     9      180.000000        0.128860         2
        10         5         6        40     9        0.000000        0.387587         3
        10         5         6        40     9      180.000000       -0.072829         4
        10         5         6        41     9        0.000000        0.121999         1
        10         5         6        41     9      180.000000        0.128860         2
        10         5         6        41     9        0.000000        0.387587         3
        10         5         6        41     9      180.000000       -0.072829         4
        10        11        12        14     9        0.000000        2.923749         1
        10        11        12        14     9      180.000000        2.022095         2
        10        11        12        14     9        0.000000        0.151149         3
        10        11        12        14     9      180.000000       -0.373995         4
        10        11        12        15     9        0.000000       -0.304414         1
        10        11        12        15     9      180.000000        3.200684         2
        10        11        12        15     9        0.000000        0.463910         3
        10        11        12        15     9      180.000000       -0.514292         4
        11        10         5        53     9        0.000000        0.019529         1
        11        10         5        53     9      180.000000        0.145848         2
        11        10         5        53     9        0.000000        0.215266         3
        11        10         5        53     9      180.000000        0.179578         4
        11        12        14        19     9        0.000000        0.509539         1
        11        12        14        19     9      180.000000       28.889665         2
        11        12        14        19     9        0.000000        0.564950         3
        11        12        14        19     9      180.000000       -0.961131         4
        11        12        15        20     9        0.000000       -1.127037         1
        11        12        15        20     9      180.000000       15.581777         2
        11        12        15        20     9        0.000000       -0.036420         3
        11        12        15        20     9      180.000000       -0.602861         4
        12        11        10        18     9        0.000000       -0.415752         1
        12        11        10        18     9      180.000000        9.010384         2
        12        11        10        18     9        0.000000        0.175298         3
        12        11        10        18     9      180.000000       -0.065606         4
        12        14        19        20     9        0.000000       -0.228535         1
        12        14        19        20     9      180.000000       27.756785         2
        12        14        19        20     9        0.000000       -2.863850         3
        12        14        19        20     9      180.000000       -0.158646         4
        12        14        19        24     9        0.000000        0.109642         1
        12        14        19        24     9      180.000000       22.524852         2
        12        14        19        24     9        0.000000        0.728535         3
        12        14        19        24     9      180.000000       -0.420500         4
        12        15        20        19     9        0.000000        0.019507         1
        12        15        20        19     9      180.000000       29.322726         2
        12        15        20        19     9        0.000000       -6.425576         3
        12        15        20        19     9      180.000000       -0.474428         4
        12        15        20        21     9        0.000000        0.448650         1
        12        15        20        21     9      180.000000       11.835073         2
        12        15        20        21     9        0.000000        0.424426         3
        12        15        20        21     9      180.000000       -0.134990         4
        13        11        10        18     9        0.000000       -0.005332         1
        13        11        10        18     9      180.000000       10.730372         2
        13        11        10        18     9        0.000000       -0.060300         3
        13        11        10        18     9      180.000000       -0.147584         4
        13        11        12        14     9        0.000000       -1.392140         1
        13        11        12        14     9      180.000000        3.582888         2
        13        11        12        14     9        0.000000        0.461599         3
        13        11        12        14     9      180.000000        0.214010         4
        13        11        12        15     9        0.000000        0.210149         1
        13        11        12        15     9      180.000000        4.370762         2
        13        11        12        15     9        0.000000       -0.343613         3
        13        11        12        15     9      180.000000        0.218765         4
        14        12        15        20     9        0.000000       -0.590193         1
        14        12        15        20     9      180.000000       31.322398         2
        14        12        15        20     9        0.000000       -5.851399         3
        14        12        15        20     9      180.000000       -0.585767         4
        14        19        20        15     9        0.000000       -0.800174         1
        14        19        20        15     9      180.000000       28.383673         2
        14        19        20        15     9        0.000000       -5.049933         3
        14        19        20        15     9      180.000000       -1.030530         4
        14        19        20        21     9        0.000000        0.006237         1
        14        19        20        21     9      180.000000       19.786124         2
        14        19        20        21     9        0.000000       -0.767005         3
        14        19        20        21     9      180.000000       -1.000863         4
        14        19        24        23     9        0.000000       -1.761287         1
        14        19        24        23     9      180.000000       -0.518566         2
        14        19        24        23     9        0.000000        0.250165         3
        14        19        24        23     9      180.000000        0.137553         4
        14        19        24        30     9        0.000000        0.061059         1
        14        19        24        30     9      180.000000        0.031081         2
        14        19        24        30     9        0.000000        0.254497         3
        14        19        24        30     9      180.000000       -0.033807         4
        14        19        24        31     9        0.000000        0.061059         1
        14        19        24        31     9      180.000000        0.031081         2
        14        19        24        31     9        0.000000        0.254497         3
        14        19        24        31     9      180.000000       -0.033807         4
        15        12        14        19     9        0.000000       -0.414856         1
        15        12        14        19     9      180.000000       36.017356         2
        15        12        14        19     9        0.000000       -4.165866         3
        15        12        14        19     9      180.000000        0.025250         4
        15        20        19        24     9        0.000000        0.102614         1
        15        20        19        24     9      180.000000       18.114968         2
        15        20        19        24     9        0.000000       -0.791874         3
        15        20        19        24     9      180.000000       -0.971119         4
        15        20        21        22     9        0.000000       -3.606837         1
        15        20        21        22     9      180.000000       -0.362514         2
        15        20        21        22     9        0.000000        0.387711         3
        15        20        21        22     9      180.000000        0.164191         4
        15        20        21        26     9        0.000000        0.050382         1
        15        20        21        26     9      180.000000        0.088073         2
        15        20        21        26     9        0.000000        0.411892         3
        15        20        21        26     9      180.000000       -0.037587         4
        15        20        21        27     9        0.000000        0.050382         1
        15        20        21        27     9      180.000000        0.088073         2
        15        20        21        27     9        0.000000        0.411892         3
        15        20        21        27     9      180.000000       -0.037587         4
        16         2         1        54     9        0.000000        1.014840         1
        16         2         1        54     9      180.000000       10.817810         2
        16         2         1        54     9        0.000000        0.231485         3
        16         2         1        54     9      180.000000        0.573584         4
        16         2         3        17     9        0.000000       -0.841552         1
        16         2         3        17     9      180.000000        0.009366         2
        16         2         3        17     9        0.000000        0.616779         3
        16         2         3        17     9      180.000000        0.167569         4
        17         3         5        53     9        0.000000        0.142113         1
        17         3         5        53     9      180.000000       -0.168423         2
        17         3         5        53     9        0.000000        0.416351         3
        17         3         5        53     9      180.000000       -0.050549         4
        17         3         9        45     9        0.000000        0.036599         1
        17         3         9        45     9      180.000000        0.017181         2
        17         3         9        45     9        0.000000        0.372843         3
        17         3         9        45     9      180.000000        0.011914         4
        17         3         9        46     9        0.000000        0.036599         1
        17         3         9        46     9      180.000000        0.017181         2
        17         3         9        46     9        0.000000        0.372843         3
        17         3         9        46     9      180.000000        0.011914         4
        18        10         5        53     9        0.000000       -0.796801         1
        18        10         5        53     9      180.000000        0.146414         2
        18        10         5        53     9        0.000000        0.563223         3
        18        10         5        53     9      180.000000        0.175350         4
        19        20        21        22     9        0.000000       -3.311658         1
        19        20        21        22     9      180.000000        0.893056         2
        19        20        21        22     9        0.000000       -0.312861         3
        19        20        21        22     9      180.000000        0.089561         4
        19        20        21        26     9        0.000000       -0.010515         1
        19        20        21        26     9      180.000000       -0.166834         2
        19        20        21        26     9        0.000000       -0.357655         3
        19        20        21        26     9      180.000000       -0.002483         4
        19        20        21        27     9        0.000000       -0.010515         1
        19        20        21        27     9      180.000000       -0.166834         2
        19        20        21        27     9        0.000000       -0.357655         3
        19        20        21        27     9      180.000000       -0.002483         4
        19        24        23        22     9        0.000000       -1.384129         1
        19        24        23        22     9      180.000000       -0.653292         2
        19        24        23        22     9        0.000000        0.502380         3
        19        24        23        22     9      180.000000       -0.119672         4
        19        24        23        28     9        0.000000        0.056682         1
        19        24        23        28     9      180.000000        0.029063         2
        19        24        23        28     9        0.000000        0.464816         3
        19        24        23        28     9      180.000000        0.029460         4
        19        24        23        29     9        0.000000        0.056682         1
        19        24        23        29     9      180.000000        0.029063         2
        19        24        23        29     9        0.000000        0.464816         3
        19        24        23        29     9      180.000000        0.029460         4
        20        19        24        23     9        0.000000       -0.581697         1
        20        19        24        23     9      180.000000       -0.178850         2
        20        19        24        23     9        0.000000       -0.539812         3
        20        19        24        23     9      180.000000        0.228285         4
        20        19        24        30     9        0.000000        0.001137         1
        20        19        24        30     9      180.000000       -0.132140         2
        20        19        24        30     9        0.000000       -0.440824         3
        20        19        24        30     9      180.000000        0.030108         4
        20        19        24        31     9        0.000000        0.001137         1
        20        19        24        31     9      180.000000       -0.132140         2
        20        19        24        31     9        0.000000       -0.440824         3
        20        19        24        31     9      180.000000        0.030108         4
        20        21        22        23     9        0.000000        1.757084         1
        20        21        22        23     9      180.000000       -1.262017         2
        20        21        22        23     9        0.000000        0.610032         3
        20        21        22        23     9      180.000000       -0.013762         4
        20        21        22        25     9        0.000000        0.088848         1
        20        21        22        25     9      180.000000        0.098174         2
        20        21        22        25     9        0.000000        0.957104         3
        20        21        22        25     9      180.000000        0.111039         4
        21        20        19        24     9        0.000000        0.173945         1
        21        20        19        24     9      180.000000       16.682661         2
        21        20        19        24     9        0.000000       -0.531422         3
        21        20        19        24     9      180.000000       -0.483502         4
        21        22        23        24     9        0.000000        2.929372         1
        21        22        23        24     9      180.000000       -2.275396         2
        21        22        23        24     9        0.000000        0.136332         3
        21        22        23        24     9      180.000000        0.386228         4
        21        22        23        28     9        0.000000       -0.123649         1
        21        22        23        28     9      180.000000        0.088231         2
        21        22        23        28     9        0.000000        0.293555         3
        21        22        23        28     9      180.000000        0.009401         4
        21        22        23        29     9        0.000000       -0.123649         1
        21        22        23        29     9      180.000000        0.088231         2
        21        22        23        29     9        0.000000        0.293555         3
        21        22        23        29     9      180.000000        0.009401         4
        21        22        25        32     9        0.000000       -0.036256         1
        21        22        25        32     9      180.000000        0.018735         2
        21        22        25        32     9        0.000000        1.024067         3
        21        22        25        32     9      180.000000        0.001601         4
        21        22        25        33     9        0.000000       -0.036256         1
        21        22        25        33     9      180.000000        0.018735         2
        21        22        25        33     9        0.000000        1.024067         3
        21        22        25        33     9      180.000000        0.001601         4
        21        22        25        34     9        0.000000       -0.036256         1
        21        22        25        34     9      180.000000        0.018735         2
        21        22        25        34     9        0.000000        1.024067         3
        21        22        25        34     9      180.000000        0.001601         4
        22        23        24        30     9        0.000000       -0.054085         1
        22        23        24        30     9      180.000000        0.034526         2
        22        23        24        30     9        0.000000        0.373195         3
        22        23        24        30     9      180.000000        0.083514         4
        22        23        24        31     9        0.000000       -0.054085         1
        22        23        24        31     9      180.000000        0.034526         2
        22        23        24        31     9        0.000000        0.373195         3
        22        23        24        31     9      180.000000        0.083514         4
        23        22        21        26     9        0.000000       -0.029691         1
        23        22        21        26     9      180.000000        0.036400         2
        23        22        21        26     9        0.000000        0.631979         3
        23        22        21        26     9      180.000000        0.071457         4
        23        22        21        27     9        0.000000       -0.029691         1
        23        22        21        27     9      180.000000        0.036400         2
        23        22        21        27     9        0.000000        0.631979         3
        23        22        21        27     9      180.000000        0.071457         4
        23        22        25        32     9        0.000000       -0.014100         1
        23        22        25        32     9      180.000000        0.015343         2
        23        22        25        32     9        0.000000        0.884158         3
        23        22        25        32     9      180.000000        0.019132         4
        23        22        25        33     9        0.000000       -0.014100         1
        23        22        25        33     9      180.000000        0.015343         2
        23        22        25        33     9        0.000000        0.884158         3
        23        22        25        33     9      180.000000        0.019132         4
        23        22        25        34     9        0.000000       -0.014100         1
        23        22        25        34     9      180.000000        0.015343         2
        23        22        25        34     9        0.000000        0.884158         3
        23        22        25        34     9      180.000000        0.019132         4
        24        23        22        25     9        0.000000        1.698500         1
        24        23        22        25     9      180.000000       -0.487751         2
        24        23        22        25     9        0.000000        0.450767         3
        24        23        22        25     9      180.000000        0.246699         4
        25        22        21        26     9        0.000000        0.111988         1
        25        22        21        26     9      180.000000        0.004567         2
        25        22        21        26     9        0.000000        0.981665         3
        25        22        21        26     9      180.000000       -0.069874         4
        25        22        21        27     9        0.000000        0.111988         1
        25        22        21        27     9      180.000000        0.004567         2
        25        22        21        27     9        0.000000        0.981665         3
        25        22        21        27     9      180.000000       -0.069874         4
        25        22        23        28     9        0.000000       -0.115413         1
        25        22        23        28     9      180.000000       -0.101300         2
        25        22        23        28     9        0.000000        0.611434         3
        25        22        23        28     9      180.000000       -0.123227         4
        25        22        23        29     9        0.000000       -0.115413         1
        25        22        23        29     9      180.000000       -0.101300         2
        25        22        23        29     9        0.000000        0.611434         3
        25        22        23        29     9      180.000000       -0.123227         4
        28        23        24        30     9        0.000000       -0.014895         1
        28        23        24        30     9      180.000000       -0.022227         2
        28        23        24        30     9        0.000000        0.401862         3
        28        23        24        30     9      180.000000       -0.001746         4
        28        23        24        31     9        0.000000       -0.014895         1
        28        23        24        31     9      180.000000       -0.022227         2
        28        23        24        31     9        0.000000        0.401862         3
        28        23        24        31     9      180.000000       -0.001746         4
        29        23        24        30     9        0.000000       -0.014895         1
        29        23        24        30     9      180.000000       -0.022227         2
        29        23        24        30     9        0.000000        0.401862         3
        29        23        24        30     9      180.000000       -0.001746         4
        29        23        24        31     9        0.000000       -0.014895         1
        29        23        24        31     9      180.000000       -0.022227         2
        29        23        24        31     9        0.000000        0.401862         3
        29        23        24        31     9      180.000000       -0.001746         4
        35         7         6        40     9        0.000000        0.178565         1
        35         7         6        40     9      180.000000        0.124017         2
        35         7         6        40     9        0.000000        0.213224         3
        35         7         6        40     9      180.000000       -0.042705         4
        35         7         6        41     9        0.000000        0.178565         1
        35         7         6        41     9      180.000000        0.124017         2
        35         7         6        41     9        0.000000        0.213224         3
        35         7         6        41     9      180.000000       -0.042705         4
        35         7         8        43     9        0.000000        0.159078         1
        35         7         8        43     9      180.000000        0.098531         2
        35         7         8        43     9        0.000000        0.249228         3
        35         7         8        43     9      180.000000       -0.047820         4
        35         7         8        44     9        0.000000        0.159078         1
        35         7         8        44     9      180.000000        0.098531         2
        35         7         8        44     9        0.000000        0.249228         3
        35         7         8        44     9      180.000000       -0.047820         4
        35        37        38        47     9        0.000000       -0.008626         1
        35        37        38        47     9      180.000000        0.038862         2
        35        37        38        47     9        0.000000        0.235749         3
        35        37        38        47     9      180.000000        0.020475         4
        35        37        38        48     9        0.000000       -0.008626         1
        35        37        38        48     9      180.000000        0.038862         2
        35        37        38        48     9        0.000000        0.235749         3
        35        37        38        48     9      180.000000        0.020475         4
        35        37        38        49     9        0.000000       -0.008626         1
        35        37        38        49     9      180.000000        0.038862         2
        35        37        38        49     9        0.000000        0.235749         3
        35        37        38        49     9      180.000000        0.020475         4
        35        37        39        50     9        0.000000       -0.008626         1
        35        37        39        50     9      180.000000        0.038862         2
        35        37        39        50     9        0.000000        0.235749         3
        35        37        39        50     9      180.000000        0.020475         4
        35        37        39        51     9        0.000000       -0.008626         1
        35        37        39        51     9      180.000000        0.038862         2
        35        37        39        51     9        0.000000        0.235749         3
        35        37        39        51     9      180.000000        0.020475         4
        35        37        39        52     9        0.000000       -0.008626         1
        35        37        39        52     9      180.000000        0.038862         2
        35        37        39        52     9        0.000000        0.235749         3
        35        37        39        52     9      180.000000        0.020475         4
        36        35         7        42     9        0.000000        1.593583         1
        36        35         7        42     9      180.000000        0.703025         2
        36        35         7        42     9        0.000000        0.717740         3
        36        35         7        42     9      180.000000       -0.500486         4
        36        35        37        38     9        0.000000       -0.375518         1
        36        35        37        38     9      180.000000       13.044421         2
        36        35        37        38     9        0.000000       -1.547115         3
        36        35        37        38     9      180.000000       -0.087257         4
        36        35        37        39     9        0.000000       -0.375518         1
        36        35        37        39     9      180.000000       13.044421         2
        36        35        37        39     9        0.000000       -1.547115         3
        36        35        37        39     9      180.000000       -0.087257         4
        37        35         7        42     9        0.000000       -0.215324         1
        37        35         7        42     9      180.000000        0.004504         2
        37        35         7        42     9        0.000000       -0.151551         3
        37        35         7        42     9      180.000000       -0.047823         4
        38        37        39        50     9        0.000000       -0.024574         1
        38        37        39        50     9      180.000000        0.053683         2
        38        37        39        50     9        0.000000        1.208154         3
        38        37        39        50     9      180.000000        0.010416         4
        38        37        39        51     9        0.000000       -0.024574         1
        38        37        39        51     9      180.000000        0.053683         2
        38        37        39        51     9        0.000000        1.208154         3
        38        37        39        51     9      180.000000        0.010416         4
        38        37        39        52     9        0.000000       -0.024574         1
        38        37        39        52     9      180.000000        0.053683         2
        38        37        39        52     9        0.000000        1.208154         3
        38        37        39        52     9      180.000000        0.010416         4
        39        37        38        47     9        0.000000       -0.024574         1
        39        37        38        47     9      180.000000        0.053683         2
        39        37        38        47     9        0.000000        1.208154         3
        39        37        38        47     9      180.000000        0.010416         4
        39        37        38        48     9        0.000000       -0.024574         1
        39        37        38        48     9      180.000000        0.053683         2
        39        37        38        48     9        0.000000        1.208154         3
        39        37        38        48     9      180.000000        0.010416         4
        39        37        38        49     9        0.000000       -0.024574         1
        39        37        38        49     9      180.000000        0.053683         2
        39        37        38        49     9        0.000000        1.208154         3
        39        37        38        49     9      180.000000        0.010416         4
        40         6         5        53     9        0.000000        0.032125         1
        40         6         5        53     9      180.000000        0.014817         2
        40         6         5        53     9        0.000000        0.397995         3
        40         6         5        53     9      180.000000        0.013189         4
        40         6         7        42     9        0.000000        0.092902         1
        40         6         7        42     9      180.000000        0.093401         2
        40         6         7        42     9        0.000000        0.416253         3
        40         6         7        42     9      180.000000       -0.035407         4
        41         6         5        53     9        0.000000        0.032125         1
        41         6         5        53     9      180.000000        0.014817         2
        41         6         5        53     9        0.000000        0.397995         3
        41         6         5        53     9      180.000000        0.013189         4
        41         6         7        42     9        0.000000        0.092902         1
        41         6         7        42     9      180.000000        0.093401         2
        41         6         7        42     9        0.000000        0.416253         3
        41         6         7        42     9      180.000000       -0.035407         4
        42         7         8        43     9        0.000000        0.089169         1
        42         7         8        43     9      180.000000        0.058938         2
        42         7         8        43     9        0.000000        0.395713         3
        42         7         8        43     9      180.000000       -0.024133         4
        42         7         8        44     9        0.000000        0.089169         1
        42         7         8        44     9      180.000000        0.058938         2
        42         7         8        44     9        0.000000        0.395713         3
        42         7         8        44     9      180.000000       -0.024133         4
        43         8         9        45     9        0.000000        0.013436         1
        43         8         9        45     9      180.000000        0.010119         2
        43         8         9        45     9        0.000000        0.296255         3
        43         8         9        45     9      180.000000        0.044245         4
        43         8         9        46     9        0.000000        0.013436         1
        43         8         9        46     9      180.000000        0.010119         2
        43         8         9        46     9        0.000000        0.296255         3
        43         8         9        46     9      180.000000        0.044245         4
        44         8         9        45     9        0.000000        0.013436         1
        44         8         9        45     9      180.000000        0.010119         2
        44         8         9        45     9        0.000000        0.296255         3
        44         8         9        45     9      180.000000        0.044245         4
        44         8         9        46     9        0.000000        0.013436         1
        44         8         9        46     9      180.000000        0.010119         2
        44         8         9        46     9        0.000000        0.296255         3
        44         8         9        46     9      180.000000        0.044245         4
        54        55        59        60     9        0.000000       -0.453446         1
        54        55        59        60     9      180.000000       26.240176         2
        54        55        59        60     9        0.000000       -8.015182         3
        54        55        59        60     9      180.000000       -0.206028         4
        54        55        59        64     9        0.000000        1.131944         1
        54        55        59        64     9      180.000000        8.472004         2
        54        55        59        64     9        0.000000       -0.021205         3
        54        55        59        64     9      180.000000       -0.226034         4
        54        56        60        59     9        0.000000       -0.717941         1
        54        56        60        59     9      180.000000       18.031378         2
        54        56        60        59     9        0.000000       -4.466663         3
        54        56        60        59     9      180.000000       -0.795065         4
        54        56        60        61     9        0.000000        0.161020         1
        54        56        60        61     9      180.000000        3.222910         2
        54        56        60        61     9        0.000000        0.416549         3
        54        56        60        61     9      180.000000        0.131730         4
        55        54        56        58     9        0.000000       -0.666852         1
        55        54        56        58     9      180.000000        2.742901         2
        55        54        56        58     9        0.000000        0.329086         3
        55        54        56        58     9      180.000000        0.115814         4
        55        54        56        60     9        0.000000        0.135445         1
        55        54        56        60     9      180.000000       19.609493         2
        55        54        56        60     9        0.000000       -5.549623         3
        55        54        56        60     9      180.000000       -0.492916         4
        55        59        60        56     9        0.000000        0.068084         1
        55        59        60        56     9      180.000000       17.349860         2
        55        59        60        56     9        0.000000       -4.655442         3
        55        59        60        56     9      180.000000       -0.324068         4
        55        59        60        61     9        0.000000        0.136731         1
        55        59        60        61     9      180.000000       10.534040         2
        55        59        60        61     9        0.000000       -1.804569         3
        55        59        60        61     9      180.000000        0.045134         4
        55        59        64        63     9        0.000000        0.586667         1
        55        59        64        63     9      180.000000       17.562058         2
        55        59        64        63     9        0.000000        0.699248         3
        55        59        64        63     9      180.000000       -0.386629         4
        56        54        55        57     9        0.000000       -0.122930         1
        56        54        55        57     9      180.000000       15.726492         2
        56        54        55        57     9        0.000000       -0.270195         3
        56        54        55        57     9      180.000000       -0.042003         4
        56        54        55        59     9        0.000000       -0.299088         1
        56        54        55        59     9      180.000000       31.038128         2
        56        54        55        59     9        0.000000       -5.525513         3
        56        54        55        59     9      180.000000       -0.542687         4
        56        60        59        64     9        0.000000        0.463390         1
        56        60        59        64     9      180.000000       13.114558         2
        56        60        59        64     9        0.000000       -0.698476         3
        56        60        59        64     9      180.000000       -0.247361         4
        56        60        61        62     9        0.000000        0.330947         1
        56        60        61        62     9      180.000000       15.890600         2
        56        60        61        62     9        0.000000        0.005787         3
        56        60        61        62     9      180.000000       -0.347757         4
        56        60        61        65     9        0.000000       -0.171366         1
        56        60        61        65     9      180.000000       11.594069         2
        56        60        61        65     9        0.000000       -0.149298         3
        56        60        61        65     9      180.000000        0.112343         4
        57        55        59        60     9        0.000000        0.015453         1
        57        55        59        60     9      180.000000       11.161435         2
        57        55        59        60     9        0.000000        0.037158         3
        57        55        59        60     9      180.000000       -0.174072         4
        57        55        59        64     9        0.000000        0.214515         1
        57        55        59        64     9      180.000000        6.687071         2
        57        55        59        64     9        0.000000        0.073380         3
        57        55        59        64     9      180.000000        0.060987         4
        58        56        60        59     9        0.000000        0.562726         1
        58        56        60        59     9      180.000000        1.509135         2
        58        56        60        59     9        0.000000        0.300635         3
        58        56        60        59     9      180.000000        0.107022         4
        58        56        60        61     9        0.000000       -0.352187         1
        58        56        60        61     9      180.000000        0.911676         2
        58        56        60        61     9        0.000000        0.181064         3
        58        56        60        61     9      180.000000       -0.046137         4
        59        60        61        62     9        0.000000       -0.151151         1
        59        60        61        62     9      180.000000       17.787008         2
        59        60        61        62     9        0.000000       -1.672320         3
        59        60        61        62     9      180.000000       -0.378835         4
        59        60        61        65     9        0.000000        0.087708         1
        59        60        61        65     9      180.000000       12.043810         2
        59        60        61        65     9        0.000000       -0.320894         3
        59        60        61        65     9      180.000000        0.052145         4
        59        64        63        62     9        0.000000        0.112908         1
        59        64        63        62     9      180.000000       26.348982         2
        59        64        63        62     9        0.000000       -0.436152         3
        59        64        63        62     9      180.000000       -0.479168         4
        59        64        63        67     9        0.000000        0.040755         1
        59        64        63        67     9      180.000000       34.015885         2
        59        64        63        67     9        0.000000        1.107672         3
        59        64        63        67     9      180.000000       -1.498710         4
        60        59        64        63     9        0.000000        0.020979         1
        60        59        64        63     9      180.000000       20.156416         2
        60        59        64        63     9        0.000000       -0.281537         3
        60        59        64        63     9      180.000000       -0.150310         4
        60        61        62        63     9        0.000000       -0.009418         1
        60        61        62        63     9      180.000000       20.145286         2
        60        61        62        63     9        0.000000       -1.873612         3
        60        61        62        63     9      180.000000       -0.465781         4
        60        61        62        66     9        0.000000       -0.001964         1
        60        61        62        66     9      180.000000       16.450147         2
        60        61        62        66     9        0.000000       -0.728527         3
        60        61        62        66     9      180.000000       -0.058732         4
        61        60        59        64     9        0.000000        0.058948         1
        61        60        59        64     9      180.000000       11.011432         2
        61        60        59        64     9        0.000000       -0.846479         3
        61        60        59        64     9      180.000000       -0.067005         4
        61        62        63        64     9        0.000000       -0.158641         1
        61        62        63        64     9      180.000000       14.662073         2
        61        62        63        64     9        0.000000       -0.558522         3
        61        62        63        64     9      180.000000       -0.275448         4
        61        62        63        67     9        0.000000        0.359485         1
        61        62        63        67     9      180.000000       16.390534         2
        61        62        63        67     9        0.000000        0.480027         3
        61        62        63        67     9      180.000000       -0.538549         4
        63        62        61        65     9        0.000000        0.136470         1
        63        62        61        65     9      180.000000       14.351526         2
        63        62        61        65     9        0.000000       -0.492373         3
        63        62        61        65     9      180.000000        0.142901         4
        64        63        62        66     9        0.000000       -0.089465         1
        64        63        62        66     9      180.000000       12.012167         2
        64        63        62        66     9        0.000000       -0.332694         3
        64        63        62        66     9      180.000000       -0.185811         4
        65        61        62        66     9        0.000000       -0.128346         1
        65        61        62        66     9      180.000000       12.189323         2
        65        61        62        66     9        0.000000       -0.708478         3
        65        61        62        66     9      180.000000        0.293449         4
        66        62        63        67     9        0.000000        0.017877         1
        66        62        63        67     9      180.000000       11.838559         2
        66        62        63        67     9        0.000000       -0.115853         3
        66        62        63        67     9      180.000000        0.107601         4

[ dihedrals ] ; impropers
;       ai        aj        ak        al funct           phase               k        pn
         1         2         4        54     4      180.000000       20.424757         2
         1         4        54         2     4      180.000000       20.424757         2
         1        54         2         4     4      180.000000       20.424757         2
        11        10        12        13     4      180.000000       14.088156         2
        11        12        13        10     4      180.000000       14.088156         2
        11        13        10        12     4      180.000000       14.088156         2
        35         7        36        37     4      180.000000       15.867169         2
        35        36        37         7     4      180.000000       15.867169         2
        35        37         7        36     4      180.000000       15.867169         2
        63        62        64        67     4      180.000000        0.897370         2
        63        64        67        62     4      180.000000        0.897370         2
        63        67        62        64     4      180.000000        0.897370         2

[ pairs ]
;       ai        aj funct
         1         5     1
         1         9     1
         1        17     1
         1        57     1
         1        58     1
         1        59     1
         1        60     1
         2         6     1
         2         8     1
         2        10     1
         2        45     1
         2        46     1
         2        53     1
         2        55     1
         2        56     1
         3         4     1
         3         7     1
         3        11     1
         3        18     1
         3        40     1
         3        41     1
         3        43     1
         3        44     1
         3        54     1
         4        16     1
         4        55     1
         4        56     1
         5         8     1
         5        12     1
         5        13     1
         5        16     1
         5        35     1
         5        42     1
         5        45     1
         5        46     1
         6         9     1
         6        11     1
         6        17     1
         6        18     1
         6        36     1
         6        37     1
         6        43     1
         6        44     1
         7        10     1
         7        38     1
         7        39     1
         7        45     1
         7        46     1
         7        53     1
         8        17     1
         8        36     1
         8        37     1
         8        40     1
         8        41     1
         9        10     1
         9        16     1
         9        35     1
         9        42     1
         9        53     1
        10        14     1
        10        15     1
        10        17     1
        10        40     1
        10        41     1
        11        19     1
        11        20     1
        11        53     1
        12        18     1
        12        21     1
        12        24     1
        13        14     1
        13        15     1
        13        18     1
        14        21     1
        14        23     1
        14        30     1
        14        31     1
        15        22     1
        15        24     1
        15        26     1
        15        27     1
        16        17     1
        16        54     1
        17        45     1
        17        46     1
        17        53     1
        18        53     1
        19        22     1
        19        26     1
        19        27     1
        19        28     1
        19        29     1
        20        23     1
        20        25     1
        20        30     1
        20        31     1
        21        24     1
        21        28     1
        21        29     1
        21        32     1
        21        33     1
        21        34     1
        22        30     1
        22        31     1
        23        26     1
        23        27     1
        23        32     1
        23        33     1
        23        34     1
        24        25     1
        25        26     1
        25        27     1
        25        28     1
        25        29     1
        28        30     1
        28        31     1
        29        30     1
        29        31     1
        35        40     1
        35        41     1
        35        43     1
        35        44     1
        35        47     1
        35        48     1
        35        49     1
        35        50     1
        35        51     1
        35        52     1
        36        38     1
        36        39     1
        36        42     1
        37        42     1
        38        50     1
        38        51     1
        38        52     1
        39        47     1
        39        48     1
        39        49     1
        40        42     1
        40        53     1
        41        42     1
        41        53     1
        42        43     1
        42        44     1
        43        45     1
        43        46     1
        44        45     1
        44        46     1
        54        61     1
        54        64     1
        55        58     1
        55        61     1
        55        63     1
        56        57     1
        56        62     1
        56        64     1
        56        65     1
        57        60     1
        57        64     1
        58        59     1
        58        61     1
        59        62     1
        59        65     1
        59        67     1
        60        63     1
        60        66     1
        61        64     1
        61        67     1
        63        65     1
        64        66     1
        65        66     1
        66        67     1
