; ITP file created by ByteFF-ML, 2025-12-06 08:04:23.242452

[ atomtypes ]
;name           bonded.type        at.num        mass        charge   ptype           sigma         epsilon
 c0bf                                   6      0.0000       0.00000       A     3.31398e-01     4.12906e-01
 n1bf                                   7      0.0000       0.00000       A     3.26925e-01     4.90244e-01
 c2bf                                   6      0.0000       0.00000       A     3.39786e-01     4.47693e-01
 o3bf                                   8      0.0000       0.00000       A     3.04531e-01     6.11130e-01
 c4bf                                   6      0.0000       0.00000       A     3.39957e-01     4.49241e-01
 c5bf                                   6      0.0000       0.00000       A     3.39695e-01     4.50020e-01
 c6bf                                   6      0.0000       0.00000       A     3.39807e-01     4.51065e-01
 c7bf                                   6      0.0000       0.00000       A     3.39783e-01     4.50599e-01
 c8bf                                   6      0.0000       0.00000       A     3.39769e-01     4.51274e-01
 n9bf                                   7      0.0000       0.00000       A     3.26602e-01     4.88281e-01
 c10bf                                  6      0.0000       0.00000       A     3.31258e-01     4.13621e-01
 c11bf                                  6      0.0000       0.00000       A     3.31371e-01     4.12927e-01
 o12bf                                  8      0.0000       0.00000       A     3.04582e-01     6.10219e-01
 n13bf                                  7      0.0000       0.00000       A     3.38377e-01     3.93517e-01
 s14bf                                 16      0.0000       0.00000       A     3.53468e-01     1.17897e+00
 h15bf                                  1      0.0000       0.00000       A     1.10529e-01     4.11419e-02
 h16bf                                  1      0.0000       0.00000       A     2.42166e-01     8.63681e-02
 h17bf                                  1      0.0000       0.00000       A     1.10612e-01     4.02241e-02
 c18bf                                  6      0.0000       0.00000       A     3.31347e-01     4.13267e-01
 c19bf                                  6      0.0000       0.00000       A     3.31421e-01     4.13824e-01
 c20bf                                  6      0.0000       0.00000       A     3.39969e-01     4.50893e-01
 n21bf                                  7      0.0000       0.00000       A     3.36930e-01     3.57427e-01
 c22bf                                  6      0.0000       0.00000       A     3.39827e-01     4.51767e-01
 c23bf                                  6      0.0000       0.00000       A     3.39882e-01     4.51317e-01
 c24bf                                  6      0.0000       0.00000       A     3.39758e-01     4.50040e-01
 h25bf                                  1      0.0000       0.00000       A     2.42170e-01     8.71342e-02
 h26bf                                  1      0.0000       0.00000       A     2.42170e-01     8.71342e-02
 h27bf                                  1      0.0000       0.00000       A     2.42257e-01     8.79530e-02
 h28bf                                  1      0.0000       0.00000       A     2.42257e-01     8.79530e-02
 h29bf                                  1      0.0000       0.00000       A     2.59883e-01     8.84270e-02
 h30bf                                  1      0.0000       0.00000       A     2.59883e-01     8.84270e-02
 h31bf                                  1      0.0000       0.00000       A     2.41989e-01     8.72555e-02
 h32bf                                  1      0.0000       0.00000       A     2.41989e-01     8.72555e-02
 h33bf                                  1      0.0000       0.00000       A     2.41989e-01     8.72555e-02
 c34bf                                  6      0.0000       0.00000       A     3.31656e-01     4.11194e-01
 o35bf                                  8      0.0000       0.00000       A     3.04848e-01     6.12895e-01
 n36bf                                  7      0.0000       0.00000       A     3.18436e-01     6.83644e-01
 c37bf                                  6      0.0000       0.00000       A     3.39787e-01     4.50128e-01
 c38bf                                  6      0.0000       0.00000       A     3.39787e-01     4.50128e-01
 h39bf                                  1      0.0000       0.00000       A     2.59758e-01     8.65469e-02
 h40bf                                  1      0.0000       0.00000       A     2.59758e-01     8.65469e-02
 h41bf                                  1      0.0000       0.00000       A     2.59710e-01     8.69571e-02
 h42bf                                  1      0.0000       0.00000       A     2.59950e-01     8.71566e-02
 h43bf                                  1      0.0000       0.00000       A     2.59950e-01     8.71566e-02
 h44bf                                  1      0.0000       0.00000       A     2.59873e-01     8.66777e-02
 h45bf                                  1      0.0000       0.00000       A     2.59873e-01     8.66777e-02
 h46bf                                  1      0.0000       0.00000       A     2.42033e-01     8.76162e-02
 h47bf                                  1      0.0000       0.00000       A     2.42033e-01     8.76162e-02
 h48bf                                  1      0.0000       0.00000       A     2.42033e-01     8.76162e-02
 h49bf                                  1      0.0000       0.00000       A     2.42033e-01     8.76162e-02
 h50bf                                  1      0.0000       0.00000       A     2.42033e-01     8.76162e-02
 h51bf                                  1      0.0000       0.00000       A     2.42033e-01     8.76162e-02
 h52bf                                  1      0.0000       0.00000       A     2.42061e-01     8.64671e-02
 c53bf                                  6      0.0000       0.00000       A     3.31426e-01     4.12185e-01
 c54bf                                  6      0.0000       0.00000       A     3.31597e-01     4.16964e-01
 n55bf                                  7      0.0000       0.00000       A     3.20300e-01     8.55621e-01
 cl56bf                                17      0.0000       0.00000       A     3.46490e-01     1.10272e+00
 h57bf                                  1      0.0000       0.00000       A     1.10946e-01     4.17548e-02
 c58bf                                  6      0.0000       0.00000       A     3.31267e-01     4.11960e-01
 c59bf                                  6      0.0000       0.00000       A     3.31640e-01     4.12215e-01
 c60bf                                  6      0.0000       0.00000       A     3.31436e-01     4.13277e-01
 c61bf                                  6      0.0000       0.00000       A     3.31509e-01     4.12670e-01
 c62bf                                  6      0.0000       0.00000       A     3.31510e-01     4.12994e-01
 c63bf                                  6      0.0000       0.00000       A     3.31406e-01     4.12903e-01
 h64bf                                  1      0.0000       0.00000       A     2.62516e-01     6.70844e-02
 h65bf                                  1      0.0000       0.00000       A     2.62487e-01     6.71929e-02
 cl66bf                                17      0.0000       0.00000       A     3.46758e-01     1.10611e+00
 h67bf                                  1      0.0000       0.00000       A     2.62487e-01     6.72600e-02

[ moleculetype ]
;name             nrexcl
 8l                    3

[ atoms ]
;       nr            type      resi   res      atom      cgnr      charge          mass ; qtot
         1            c0bf         1   UNL        c0         1     0.63224       12.0110 ; qtot    0.632
         2            n1bf         1   UNL        n1         2    -0.49257       14.0070 ; qtot    0.140
         3            c2bf         1   UNL        c2         3     0.09550       12.0110 ; qtot    0.235
         4            o3bf         1   UNL        o3         4    -0.59470       15.9990 ; qtot   -0.360
         5            c4bf         1   UNL        c4         5     0.09862       12.0110 ; qtot   -0.261
         6            c5bf         1   UNL        c5         6    -0.07596       12.0110 ; qtot   -0.337
         7            c6bf         1   UNL        c6         7    -0.13491       12.0110 ; qtot   -0.472
         8            c7bf         1   UNL        c7         8    -0.06729       12.0110 ; qtot   -0.539
         9            c8bf         1   UNL        c8         9    -0.08789       12.0110 ; qtot   -0.627
        10            n9bf         1   UNL        n9        10    -0.49009       14.0070 ; qtot   -1.117
        11           c10bf         1   UNL       c10        11     0.53549       12.0110 ; qtot   -0.582
        12           c11bf         1   UNL       c11        12     0.38153       12.0110 ; qtot   -0.200
        13           o12bf         1   UNL       o12        13    -0.58023       15.9990 ; qtot   -0.780
        14           n13bf         1   UNL       n13        14    -0.61219       14.0070 ; qtot   -1.392
        15           s14bf         1   UNL       s14        15     0.02030       32.0670 ; qtot   -1.372
        16           h15bf         1   UNL       h15        16     0.32813        1.0080 ; qtot   -1.044
        17           h16bf         1   UNL       h16        17     0.07701        1.0080 ; qtot   -0.967
        18           h17bf         1   UNL       h17        18     0.34007        1.0080 ; qtot   -0.627
        19           c18bf         1   UNL       c18        19     0.28744       12.0110 ; qtot   -0.339
        20           c19bf         1   UNL       c19        20    -0.23576       12.0110 ; qtot   -0.575
        21           c20bf         1   UNL       c20        21     0.24225       12.0110 ; qtot   -0.333
        22           n21bf         1   UNL       n21        22    -0.71279       14.0070 ; qtot   -1.046
        23           c22bf         1   UNL       c22        23     0.15975       12.0110 ; qtot   -0.886
        24           c23bf         1   UNL       c23        24    -0.11333       12.0110 ; qtot   -0.999
        25           c24bf         1   UNL       c24        25     0.14641       12.0110 ; qtot   -0.853
        26           h25bf         1   UNL       h25        26     0.05577        1.0080 ; qtot   -0.797
        27           h26bf         1   UNL       h26        27     0.05577        1.0080 ; qtot   -0.741
        28           h27bf         1   UNL       h27        28     0.04433        1.0080 ; qtot   -0.697
        29           h28bf         1   UNL       h28        29     0.04433        1.0080 ; qtot   -0.653
        30           h29bf         1   UNL       h29        30     0.06561        1.0080 ; qtot   -0.587
        31           h30bf         1   UNL       h30        31     0.06561        1.0080 ; qtot   -0.522
        32           h31bf         1   UNL       h31        32     0.03413        1.0080 ; qtot   -0.487
        33           h32bf         1   UNL       h32        33     0.03413        1.0080 ; qtot   -0.453
        34           h33bf         1   UNL       h33        34     0.03413        1.0080 ; qtot   -0.419
        35           c34bf         1   UNL       c34        35     0.60518       12.0110 ; qtot    0.186
        36           o35bf         1   UNL       o35        36    -0.60574       15.9990 ; qtot   -0.420
        37           n36bf         1   UNL       n36        37    -0.42066       14.0070 ; qtot   -0.840
        38           c37bf         1   UNL       c37        38     0.08301       12.0110 ; qtot   -0.757
        39           c38bf         1   UNL       c38        39     0.08301       12.0110 ; qtot   -0.674
        40           h39bf         1   UNL       h39        40     0.06130        1.0080 ; qtot   -0.613
        41           h40bf         1   UNL       h40        41     0.06130        1.0080 ; qtot   -0.552
        42           h41bf         1   UNL       h41        42     0.06316        1.0080 ; qtot   -0.489
        43           h42bf         1   UNL       h42        43     0.05027        1.0080 ; qtot   -0.438
        44           h43bf         1   UNL       h43        44     0.05027        1.0080 ; qtot   -0.388
        45           h44bf         1   UNL       h44        45     0.05508        1.0080 ; qtot   -0.333
        46           h45bf         1   UNL       h45        46     0.05508        1.0080 ; qtot   -0.278
        47           h46bf         1   UNL       h46        47     0.04477        1.0080 ; qtot   -0.233
        48           h47bf         1   UNL       h47        48     0.04477        1.0080 ; qtot   -0.188
        49           h48bf         1   UNL       h48        49     0.04477        1.0080 ; qtot   -0.144
        50           h49bf         1   UNL       h49        50     0.04477        1.0080 ; qtot   -0.099
        51           h50bf         1   UNL       h50        51     0.04477        1.0080 ; qtot   -0.054
        52           h51bf         1   UNL       h51        52     0.04477        1.0080 ; qtot   -0.009
        53           h52bf         1   UNL       h52        53     0.07783        1.0080 ; qtot    0.069
        54           c53bf         1   UNL       c53        54    -0.12185       12.0110 ; qtot   -0.053
        55           c54bf         1   UNL       c54        55     0.10478       12.0110 ; qtot    0.051
        56           n55bf         1   UNL       n55        56    -0.19764       14.0070 ; qtot   -0.146
        57          cl56bf         1   UNL      cl56        57    -0.14949       35.4530 ; qtot   -0.296
        58           h57bf         1   UNL       h57        58     0.36441        1.0080 ; qtot    0.069
        59           c58bf         1   UNL       c58        59    -0.09256       12.0110 ; qtot   -0.024
        60           c59bf         1   UNL       c59        60    -0.02629       12.0110 ; qtot   -0.050
        61           c60bf         1   UNL       c60        61    -0.11773       12.0110 ; qtot   -0.168
        62           c61bf         1   UNL       c61        62    -0.07752       12.0110 ; qtot   -0.245
        63           c62bf         1   UNL       c62        63     0.09137       12.0110 ; qtot   -0.154
        64           c63bf         1   UNL       c63        64    -0.03388       12.0110 ; qtot   -0.188
        65           h64bf         1   UNL       h64        65     0.12409        1.0080 ; qtot   -0.064
        66           h65bf         1   UNL       h65        66     0.13094        1.0080 ; qtot    0.067
        67          cl66bf         1   UNL      cl66        67    -0.21185       35.4530 ; qtot   -0.145
        68           h67bf         1   UNL       h67        68     0.14467        1.0080 ; qtot   -0.000

[ bonds ]
;       ai        aj funct               r               k
         1         2     1        0.136583   305181.583105
         1         4     1        0.123554   580565.190137
         1        54     1        0.148480   190507.321143
         2         3     1        0.146467   189924.002490
         2        16     1        0.101330   414516.597314
         3         5     1        0.154754   156747.773291
         3         9     1        0.153876   173032.736865
         3        17     1        0.109304   301484.243799
         5         6     1        0.153891   171747.952124
         5        10     1        0.146252   191021.906665
         5        53     1        0.109291   301684.863330
         6         7     1        0.154579   164893.255688
         6        40     1        0.109326   300596.548340
         6        41     1        0.109326   300596.548340
         7         8     1        0.154661   163666.440186
         7        35     1        0.153191   158389.860498
         7        42     1        0.109414   302100.760693
         8         9     1        0.153693   181135.763818
         8        43     1        0.109447   297470.142188
         8        44     1        0.109447   297470.142188
         9        45     1        0.109409   298760.123730
         9        46     1        0.109409   298760.123730
        10        11     1        0.136095   315450.182471
        10        18     1        0.101409   412617.504639
        11        12     1        0.149761   181928.231396
        11        13     1        0.123205   595504.348047
        12        14     1        0.130744   394780.497705
        12        15     1        0.175753   114860.631787
        14        19     1        0.137483   250388.573877
        15        20     1        0.173418   163411.809668
        19        20     1        0.137232   358668.241504
        19        24     1        0.150284   209899.921094
        20        21     1        0.150545   205958.217187
        21        22     1        0.146468   191918.016602
        21        26     1        0.110015   279945.275342
        21        27     1        0.110015   279945.275342
        22        23     1        0.146781   189560.941406
        22        25     1        0.146077   206296.839258
        23        24     1        0.153813   178870.826514
        23        28     1        0.109814   285833.060205
        23        29     1        0.109814   285833.060205
        24        30     1        0.109539   296322.146973
        24        31     1        0.109539   296322.146973
        25        32     1        0.109765   288786.145996
        25        33     1        0.109765   288786.145996
        25        34     1        0.109765   288786.145996
        35        36     1        0.123512   586720.450684
        35        37     1        0.137606   276714.984229
        37        38     1        0.145947   208517.507983
        37        39     1        0.145947   208517.507983
        38        47     1        0.109324   300806.693213
        38        48     1        0.109324   300806.693213
        38        49     1        0.109324   300806.693213
        39        50     1        0.109324   300806.693213
        39        51     1        0.109324   300806.693213
        39        52     1        0.109324   300806.693213
        54        55     1        0.138553   340945.181152
        54        56     1        0.139229   265683.284961
        55        57     1        0.173412   181346.547119
        55        59     1        0.143327   243561.380908
        56        58     1        0.101148   425979.056543
        56        60     1        0.137733   285510.603125
        59        60     1        0.142474   244443.713574
        59        64     1        0.140627   300311.324365
        60        61     1        0.140022   307533.346582
        61        62     1        0.139215   326465.742285
        61        65     1        0.108582   320090.505078
        62        63     1        0.141179   270748.877051
        62        66     1        0.108435   325442.163867
        63        64     1        0.138760   318486.519238
        63        67     1        0.176086   146826.070020
        64        68     1        0.108394   326611.329346

[ angles ]
;       ai        aj        ak funct           theta             cth
         1         2         3     1      122.463699      527.656022
         1         2        16     1      117.774643      437.713780
         1        54        55     1      134.213943      497.501452
         1        54        56     1      117.994949      410.232530
         2         1         4     1      123.473099      604.322286
         2         1        54     1      115.609970      476.047981
         2         3         5     1      111.184341      548.645897
         2         3         9     1      111.626266      626.771448
         2         3        17     1      106.361717      525.061100
         3         2        16     1      116.369522      407.910728
         3         5         6     1      110.943848      561.803638
         3         5        10     1      111.225845      548.786224
         3         5        53     1      107.770432      470.882399
         3         9         8     1      111.599037      623.546303
         3         9        45     1      108.995728      497.501516
         3         9        46     1      108.995728      497.501516
         4         1        54     1      120.773216      558.099288
         5         3         9     1      110.846291      555.882667
         5         3        17     1      107.675941      473.198966
         5         6         7     1      111.940201      596.811376
         5         6        40     1      109.081688      493.138117
         5         6        41     1      109.081688      493.138117
         5        10        11     1      123.287148      523.560284
         5        10        18     1      117.982994      388.331235
         6         5        10     1      111.415794      612.989071
         6         5        53     1      108.670311      471.698086
         6         7         8     1      110.560959      569.917990
         6         7        35     1      110.802452      642.130488
         6         7        42     1      107.640671      495.211858
         7         6        40     1      109.789185      465.155383
         7         6        41     1      109.789185      465.155383
         7         8         9     1      111.600388      627.192045
         7         8        43     1      109.459435      468.787845
         7         8        44     1      109.459435      468.787845
         7        35        36     1      120.367775      453.866799
         7        35        37     1      118.348633      449.080890
         8         7        35     1      111.026161      653.509377
         8         7        42     1      107.798851      493.236244
         8         9        45     1      109.995140      502.450863
         8         9        46     1      109.995155      502.450863
         9         3        17     1      108.802162      472.086059
         9         8        43     1      109.710251      513.187717
         9         8        44     1      109.710251      513.187717
        10         5        53     1      106.367630      527.615386
        10        11        12     1      114.245560      430.111414
        10        11        13     1      124.890869      615.174089
        11        10        18     1      117.270615      420.964947
        11        12        14     1      124.340652      359.309363
        11        12        15     1      120.844772      468.365589
        12        11        13     1      120.964073      537.680773
        12        14        19     1      111.406593      328.705787
        12        15        20     1       88.551132      167.360000
        14        12        15     1      114.891418      167.360000
        14        19        20     1      115.272217      312.892188
        14        19        24     1      122.848999      461.667684
        15        20        19     1      110.263878      167.360000
        15        20        21     1      125.788002      401.332369
        19        20        21     1      123.996292      562.620314
        19        24        23     1      109.429955      644.587349
        19        24        30     1      109.759384      484.571854
        19        24        31     1      109.759384      484.571854
        20        19        24     1      121.676254      406.530862
        20        21        22     1      110.200546      563.933816
        20        21        26     1      110.205734      462.983196
        20        21        27     1      110.205734      462.983196
        21        22        23     1      111.045578      613.756014
        21        22        25     1      111.203835      630.245325
        22        21        26     1      109.551048      459.134690
        22        21        27     1      109.551048      459.134690
        22        23        24     1      112.270889      625.644432
        22        23        28     1      109.041969      476.770682
        22        23        29     1      109.041969      476.770682
        22        25        32     1      110.858498      481.423224
        22        25        33     1      110.858498      481.423224
        22        25        34     1      110.858498      481.423224
        23        22        25     1      112.192528      649.121399
        23        24        30     1      110.261795      502.853519
        23        24        31     1      110.261795      502.853519
        24        23        28     1      109.631447      493.664916
        24        23        29     1      109.631447      493.664916
        26        21        27     1      106.585083      354.341693
        28        23        29     1      107.114723      348.812845
        30        24        31     1      106.901878      363.316136
        32        25        33     1      108.062943      347.504005
        32        25        34     1      108.062943      347.504005
        33        25        34     1      108.062943      347.504005
        35         7        42     1      108.212730      515.178845
        35        37        38     1      122.129654      505.902714
        35        37        39     1      122.129654      505.902714
        36        35        37     1      121.081711      636.267423
        37        38        47     1      110.326584      477.859265
        37        38        48     1      110.326584      477.859329
        37        38        49     1      110.326584      477.859265
        37        39        50     1      110.326584      477.859265
        37        39        51     1      110.326584      477.859265
        37        39        52     1      110.326584      477.859265
        38        37        39     1      114.947632      573.331217
        40         6        41     1      107.084274      355.159487
        43         8        44     1      106.645180      359.821255
        45         9        46     1      106.834862      356.409369
        47        38        48     1      108.724693      349.793087
        47        38        49     1      108.724693      349.793087
        48        38        49     1      108.724693      349.793087
        50        39        51     1      108.724693      349.793087
        50        39        52     1      108.724693      349.793087
        51        39        52     1      108.724693      349.793087
        54        55        57     1      127.482498      345.516834
        54        55        59     1      108.450867      314.787392
        54        56        58     1      121.785934      374.198807
        54        56        60     1      109.876076      419.798572
        55        54        56     1      107.602394      167.360000
        55        59        60     1      106.242287      492.356426
        55        59        64     1      133.800034      354.383095
        56        60        59     1      107.426895      337.023256
        56        60        61     1      130.912582      448.805249
        57        55        59     1      123.898216      398.882243
        58        56        60     1      126.555008      384.350542
        59        60        61     1      121.764427      630.378182
        59        64        63     1      117.610352      636.670845
        59        64        68     1      121.182083      430.003360
        60        59        64     1      119.994362      730.398421
        60        61        62     1      117.805557      793.360675
        60        61        65     1      121.739120      444.708234
        61        62        63     1      120.389832      570.855458
        61        62        66     1      120.372360      419.616588
        62        61        65     1      120.453476      439.309211
        62        63        64     1      122.511635      591.281825
        62        63        67     1      118.302490      393.793016
        63        62        66     1      119.358788      431.228727
        63        64        68     1      121.167313      414.416881
        64        63        67     1      119.274292      326.239669

[ dihedrals ] ; propers for gromacs 4.5 or higher, use funct 9
;       ai        aj        ak        al funct           phase               k        pn
         1         2         3         5     9        0.000000        1.507734         1
         1         2         3         5     9      180.000000       -0.695757         2
         1         2         3         5     9        0.000000        0.393032         3
         1         2         3         5     9      180.000000        0.203320         4
         1         2         3         9     9        0.000000        0.093460         1
         1         2         3         9     9      180.000000       -0.302385         2
         1         2         3         9     9        0.000000        0.508365         3
         1         2         3         9     9      180.000000        0.017305         4
         1         2         3        17     9        0.000000       -0.138366         1
         1         2         3        17     9      180.000000        0.150231         2
         1         2         3        17     9        0.000000        0.302514         3
         1         2         3        17     9      180.000000        0.142259         4
         1        54        55        57     9        0.000000        0.415717         1
         1        54        55        57     9      180.000000       12.067072         2
         1        54        55        57     9        0.000000        0.814212         3
         1        54        55        57     9      180.000000       -0.602497         4
         1        54        55        59     9        0.000000        0.176426         1
         1        54        55        59     9      180.000000       13.856720         2
         1        54        55        59     9        0.000000       -0.555241         3
         1        54        55        59     9      180.000000       -0.647863         4
         1        54        56        58     9        0.000000        0.110660         1
         1        54        56        58     9      180.000000        1.583457         2
         1        54        56        58     9        0.000000        0.119044         3
         1        54        56        58     9      180.000000        0.012257         4
         1        54        56        60     9        0.000000        0.337028         1
         1        54        56        60     9      180.000000        6.585120         2
         1        54        56        60     9        0.000000        0.613663         3
         1        54        56        60     9      180.000000       -0.147884         4
         2         1        54        55     9        0.000000        1.377352         1
         2         1        54        55     9      180.000000        2.091967         2
         2         1        54        55     9        0.000000        0.428005         3
         2         1        54        55     9      180.000000       -0.574774         4
         2         1        54        56     9        0.000000        0.464931         1
         2         1        54        56     9      180.000000        5.350474         2
         2         1        54        56     9        0.000000        0.111345         3
         2         1        54        56     9      180.000000       -0.077799         4
         2         3         5         6     9        0.000000       -0.717231         1
         2         3         5         6     9      180.000000        0.135194         2
         2         3         5         6     9        0.000000        0.048716         3
         2         3         5         6     9      180.000000        0.272837         4
         2         3         5        10     9        0.000000        2.616999         1
         2         3         5        10     9      180.000000        0.185680         2
         2         3         5        10     9        0.000000       -0.515864         3
         2         3         5        10     9      180.000000        0.057889         4
         2         3         5        53     9        0.000000       -0.540717         1
         2         3         5        53     9      180.000000        0.058254         2
         2         3         5        53     9        0.000000        0.359574         3
         2         3         5        53     9      180.000000       -0.012155         4
         2         3         9         8     9        0.000000       -0.293701         1
         2         3         9         8     9      180.000000        0.618267         2
         2         3         9         8     9        0.000000        0.151325         3
         2         3         9         8     9      180.000000        0.162615         4
         2         3         9        45     9        0.000000        0.024445         1
         2         3         9        45     9      180.000000        0.095452         2
         2         3         9        45     9        0.000000        0.359765         3
         2         3         9        45     9      180.000000       -0.066380         4
         2         3         9        46     9        0.000000        0.024445         1
         2         3         9        46     9      180.000000        0.095452         2
         2         3         9        46     9        0.000000        0.359765         3
         2         3         9        46     9      180.000000       -0.066380         4
         3         2         1         4     9        0.000000       -1.321846         1
         3         2         1         4     9      180.000000        9.223171         2
         3         2         1         4     9        0.000000        0.167430         3
         3         2         1         4     9      180.000000       -0.863077         4
         3         2         1        54     9        0.000000        3.952793         1
         3         2         1        54     9      180.000000       11.695388         2
         3         2         1        54     9        0.000000        1.659616         3
         3         2         1        54     9      180.000000       -0.085009         4
         3         5         6         7     9        0.000000        3.508533         1
         3         5         6         7     9      180.000000       -1.759481         2
         3         5         6         7     9        0.000000       -0.098784         3
         3         5         6         7     9      180.000000        0.006198         4
         3         5         6        40     9        0.000000       -0.087531         1
         3         5         6        40     9      180.000000        0.062399         2
         3         5         6        40     9        0.000000        0.167274         3
         3         5         6        40     9      180.000000        0.046439         4
         3         5         6        41     9        0.000000       -0.087531         1
         3         5         6        41     9      180.000000        0.062399         2
         3         5         6        41     9        0.000000        0.167274         3
         3         5         6        41     9      180.000000        0.046439         4
         3         5        10        11     9        0.000000        1.056143         1
         3         5        10        11     9      180.000000       -0.426435         2
         3         5        10        11     9        0.000000        0.338458         3
         3         5        10        11     9      180.000000        0.176767         4
         3         5        10        18     9        0.000000        0.646564         1
         3         5        10        18     9      180.000000       -1.082055         2
         3         5        10        18     9        0.000000        0.541931         3
         3         5        10        18     9      180.000000        0.020902         4
         3         9         8         7     9        0.000000        1.264740         1
         3         9         8         7     9      180.000000       -1.620351         2
         3         9         8         7     9        0.000000        0.192925         3
         3         9         8         7     9      180.000000        0.077274         4
         3         9         8        43     9        0.000000       -0.092629         1
         3         9         8        43     9      180.000000        0.066268         2
         3         9         8        43     9        0.000000        0.235005         3
         3         9         8        43     9      180.000000        0.022199         4
         3         9         8        44     9        0.000000       -0.092629         1
         3         9         8        44     9      180.000000        0.066268         2
         3         9         8        44     9        0.000000        0.235005         3
         3         9         8        44     9      180.000000        0.022199         4
         4         1         2        16     9        0.000000       -0.316191         1
         4         1         2        16     9      180.000000       10.743179         2
         4         1         2        16     9        0.000000        0.097785         3
         4         1         2        16     9      180.000000        0.374294         4
         4         1        54        55     9        0.000000       -5.800592         1
         4         1        54        55     9      180.000000        3.424218         2
         4         1        54        55     9        0.000000        0.087707         3
         4         1        54        55     9      180.000000       -0.008919         4
         4         1        54        56     9        0.000000        1.711334         1
         4         1        54        56     9      180.000000        5.546723         2
         4         1        54        56     9        0.000000        0.085105         3
         4         1        54        56     9      180.000000        0.295344         4
         5         3         2        16     9        0.000000        0.853183         1
         5         3         2        16     9      180.000000       -1.104508         2
         5         3         2        16     9        0.000000        0.657795         3
         5         3         2        16     9      180.000000        0.049304         4
         5         3         9         8     9        0.000000        2.718239         1
         5         3         9         8     9      180.000000       -1.619708         2
         5         3         9         8     9        0.000000        0.048894         3
         5         3         9         8     9      180.000000        0.055771         4
         5         3         9        45     9        0.000000       -0.095906         1
         5         3         9        45     9      180.000000        0.058960         2
         5         3         9        45     9        0.000000        0.178007         3
         5         3         9        45     9      180.000000        0.056484         4
         5         3         9        46     9        0.000000       -0.095906         1
         5         3         9        46     9      180.000000        0.058960         2
         5         3         9        46     9        0.000000        0.178007         3
         5         3         9        46     9      180.000000        0.056484         4
         5         6         7         8     9        0.000000        2.165031         1
         5         6         7         8     9      180.000000       -2.097222         2
         5         6         7         8     9        0.000000        0.100591         3
         5         6         7         8     9      180.000000       -0.066916         4
         5         6         7        35     9        0.000000       -0.983937         1
         5         6         7        35     9      180.000000       -0.488697         2
         5         6         7        35     9        0.000000        0.042854         3
         5         6         7        35     9      180.000000        0.043589         4
         5         6         7        42     9        0.000000       -0.730470         1
         5         6         7        42     9      180.000000        0.097424         2
         5         6         7        42     9        0.000000        0.165336         3
         5         6         7        42     9      180.000000        0.052036         4
         5        10        11        12     9        0.000000        1.555928         1
         5        10        11        12     9      180.000000       10.814282         2
         5        10        11        12     9        0.000000        0.661597         3
         5        10        11        12     9      180.000000       -0.283510         4
         5        10        11        13     9        0.000000       -0.697008         1
         5        10        11        13     9      180.000000       10.165090         2
         5        10        11        13     9        0.000000        0.481442         3
         5        10        11        13     9      180.000000       -1.333102         4
         6         5         3         9     9        0.000000        3.340036         1
         6         5         3         9     9      180.000000       -1.604247         2
         6         5         3         9     9        0.000000        0.097314         3
         6         5         3         9     9      180.000000       -0.012729         4
         6         5         3        17     9        0.000000       -0.372939         1
         6         5         3        17     9      180.000000        0.082833         2
         6         5         3        17     9        0.000000        0.300425         3
         6         5         3        17     9      180.000000        0.058440         4
         6         5        10        11     9        0.000000        0.002927         1
         6         5        10        11     9      180.000000       -0.404022         2
         6         5        10        11     9        0.000000        0.371083         3
         6         5        10        11     9      180.000000        0.052955         4
         6         5        10        18     9        0.000000       -0.144735         1
         6         5        10        18     9      180.000000       -0.350990         2
         6         5        10        18     9        0.000000        0.351412         3
         6         5        10        18     9      180.000000       -0.039177         4
         6         7         8         9     9        0.000000        0.883255         1
         6         7         8         9     9      180.000000       -1.399723         2
         6         7         8         9     9        0.000000        0.313351         3
         6         7         8         9     9      180.000000       -0.050724         4
         6         7         8        43     9        0.000000       -0.056826         1
         6         7         8        43     9      180.000000        0.050149         2
         6         7         8        43     9        0.000000        0.270717         3
         6         7         8        43     9      180.000000        0.019384         4
         6         7         8        44     9        0.000000       -0.056826         1
         6         7         8        44     9      180.000000        0.050149         2
         6         7         8        44     9        0.000000        0.270717         3
         6         7         8        44     9      180.000000        0.019384         4
         6         7        35        36     9        0.000000       -0.455386         1
         6         7        35        36     9      180.000000        0.737900         2
         6         7        35        36     9        0.000000        0.287526         3
         6         7        35        36     9      180.000000        0.250951         4
         6         7        35        37     9        0.000000        0.270994         1
         6         7        35        37     9      180.000000        1.080078         2
         6         7        35        37     9        0.000000       -0.027563         3
         6         7        35        37     9      180.000000        0.001527         4
         7         6         5        10     9        0.000000       -0.371142         1
         7         6         5        10     9      180.000000        0.220404         2
         7         6         5        10     9        0.000000        0.058079         3
         7         6         5        10     9      180.000000        0.224988         4
         7         6         5        53     9        0.000000       -0.669148         1
         7         6         5        53     9      180.000000        0.139992         2
         7         6         5        53     9        0.000000        0.154327         3
         7         6         5        53     9      180.000000        0.076148         4
         7         8         9        45     9        0.000000       -0.081149         1
         7         8         9        45     9      180.000000        0.083136         2
         7         8         9        45     9        0.000000        0.213491         3
         7         8         9        45     9      180.000000        0.012123         4
         7         8         9        46     9        0.000000       -0.081149         1
         7         8         9        46     9      180.000000        0.083136         2
         7         8         9        46     9        0.000000        0.213491         3
         7         8         9        46     9      180.000000        0.012123         4
         7        35        37        38     9        0.000000        7.685850         1
         7        35        37        38     9      180.000000       10.413246         2
         7        35        37        38     9        0.000000        0.340038         3
         7        35        37        38     9      180.000000       -0.442447         4
         7        35        37        39     9        0.000000        7.685850         1
         7        35        37        39     9      180.000000       10.413246         2
         7        35        37        39     9        0.000000        0.340038         3
         7        35        37        39     9      180.000000       -0.442447         4
         8         7         6        40     9        0.000000       -0.052172         1
         8         7         6        40     9      180.000000        0.058083         2
         8         7         6        40     9        0.000000        0.229959         3
         8         7         6        40     9      180.000000        0.057798         4
         8         7         6        41     9        0.000000       -0.052172         1
         8         7         6        41     9      180.000000        0.058083         2
         8         7         6        41     9        0.000000        0.229959         3
         8         7         6        41     9      180.000000        0.057798         4
         8         7        35        36     9        0.000000       -0.698289         1
         8         7        35        36     9      180.000000        0.744054         2
         8         7        35        36     9        0.000000        0.336890         3
         8         7        35        36     9      180.000000        0.225666         4
         8         7        35        37     9        0.000000        0.291846         1
         8         7        35        37     9      180.000000        1.098654         2
         8         7        35        37     9        0.000000        0.042828         3
         8         7        35        37     9      180.000000       -0.012816         4
         8         9         3        17     9        0.000000       -0.422717         1
         8         9         3        17     9      180.000000        0.170287         2
         8         9         3        17     9        0.000000        0.248151         3
         8         9         3        17     9      180.000000        0.027552         4
         9         3         2        16     9        0.000000        0.171951         1
         9         3         2        16     9      180.000000       -0.039406         2
         9         3         2        16     9        0.000000        0.443511         3
         9         3         2        16     9      180.000000       -0.019756         4
         9         3         5        10     9        0.000000       -0.464824         1
         9         3         5        10     9      180.000000        0.259920         2
         9         3         5        10     9        0.000000        0.145208         3
         9         3         5        10     9      180.000000        0.204579         4
         9         3         5        53     9        0.000000       -0.387930         1
         9         3         5        53     9      180.000000        0.126094         2
         9         3         5        53     9        0.000000        0.325922         3
         9         3         5        53     9      180.000000        0.047195         4
         9         8         7        35     9        0.000000       -1.214715         1
         9         8         7        35     9      180.000000       -0.026304         2
         9         8         7        35     9        0.000000        0.125444         3
         9         8         7        35     9      180.000000        0.097348         4
         9         8         7        42     9        0.000000       -0.470240         1
         9         8         7        42     9      180.000000        0.119524         2
         9         8         7        42     9        0.000000        0.267326         3
         9         8         7        42     9      180.000000        0.031749         4
        10         5         3        17     9        0.000000       -0.409676         1
        10         5         3        17     9      180.000000        0.007963         2
        10         5         3        17     9        0.000000        0.352618         3
        10         5         3        17     9      180.000000       -0.006126         4
        10         5         6        40     9        0.000000        0.121999         1
        10         5         6        40     9      180.000000        0.128860         2
        10         5         6        40     9        0.000000        0.387587         3
        10         5         6        40     9      180.000000       -0.072829         4
        10         5         6        41     9        0.000000        0.121999         1
        10         5         6        41     9      180.000000        0.128860         2
        10         5         6        41     9        0.000000        0.387587         3
        10         5         6        41     9      180.000000       -0.072829         4
        10        11        12        14     9        0.000000        2.923749         1
        10        11        12        14     9      180.000000        2.022095         2
        10        11        12        14     9        0.000000        0.151149         3
        10        11        12        14     9      180.000000       -0.373995         4
        10        11        12        15     9        0.000000       -0.304414         1
        10        11        12        15     9      180.000000        3.200684         2
        10        11        12        15     9        0.000000        0.463910         3
        10        11        12        15     9      180.000000       -0.514292         4
        11        10         5        53     9        0.000000        0.019529         1
        11        10         5        53     9      180.000000        0.145848         2
        11        10         5        53     9        0.000000        0.215266         3
        11        10         5        53     9      180.000000        0.179578         4
        11        12        14        19     9        0.000000        0.509539         1
        11        12        14        19     9      180.000000       28.889665         2
        11        12        14        19     9        0.000000        0.564950         3
        11        12        14        19     9      180.000000       -0.961131         4
        11        12        15        20     9        0.000000       -1.127037         1
        11        12        15        20     9      180.000000       15.581777         2
        11        12        15        20     9        0.000000       -0.036420         3
        11        12        15        20     9      180.000000       -0.602861         4
        12        11        10        18     9        0.000000       -0.415752         1
        12        11        10        18     9      180.000000        9.010384         2
        12        11        10        18     9        0.000000        0.175298         3
        12        11        10        18     9      180.000000       -0.065606         4
        12        14        19        20     9        0.000000       -0.228535         1
        12        14        19        20     9      180.000000       27.756785         2
        12        14        19        20     9        0.000000       -2.863850         3
        12        14        19        20     9      180.000000       -0.158646         4
        12        14        19        24     9        0.000000        0.109642         1
        12        14        19        24     9      180.000000       22.524852         2
        12        14        19        24     9        0.000000        0.728535         3
        12        14        19        24     9      180.000000       -0.420500         4
        12        15        20        19     9        0.000000        0.019507         1
        12        15        20        19     9      180.000000       29.322726         2
        12        15        20        19     9        0.000000       -6.425576         3
        12        15        20        19     9      180.000000       -0.474428         4
        12        15        20        21     9        0.000000        0.448650         1
        12        15        20        21     9      180.000000       11.835073         2
        12        15        20        21     9        0.000000        0.424426         3
        12        15        20        21     9      180.000000       -0.134990         4
        13        11        10        18     9        0.000000       -0.005332         1
        13        11        10        18     9      180.000000       10.730372         2
        13        11        10        18     9        0.000000       -0.060300         3
        13        11        10        18     9      180.000000       -0.147584         4
        13        11        12        14     9        0.000000       -1.392140         1
        13        11        12        14     9      180.000000        3.582888         2
        13        11        12        14     9        0.000000        0.461599         3
        13        11        12        14     9      180.000000        0.214010         4
        13        11        12        15     9        0.000000        0.210149         1
        13        11        12        15     9      180.000000        4.370762         2
        13        11        12        15     9        0.000000       -0.343613         3
        13        11        12        15     9      180.000000        0.218765         4
        14        12        15        20     9        0.000000       -0.590193         1
        14        12        15        20     9      180.000000       31.322398         2
        14        12        15        20     9        0.000000       -5.851399         3
        14        12        15        20     9      180.000000       -0.585767         4
        14        19        20        15     9        0.000000       -0.800174         1
        14        19        20        15     9      180.000000       28.383673         2
        14        19        20        15     9        0.000000       -5.049933         3
        14        19        20        15     9      180.000000       -1.030530         4
        14        19        20        21     9        0.000000        0.006237         1
        14        19        20        21     9      180.000000       19.786124         2
        14        19        20        21     9        0.000000       -0.767005         3
        14        19        20        21     9      180.000000       -1.000863         4
        14        19        24        23     9        0.000000       -1.761287         1
        14        19        24        23     9      180.000000       -0.518566         2
        14        19        24        23     9        0.000000        0.250165         3
        14        19        24        23     9      180.000000        0.137553         4
        14        19        24        30     9        0.000000        0.061059         1
        14        19        24        30     9      180.000000        0.031081         2
        14        19        24        30     9        0.000000        0.254497         3
        14        19        24        30     9      180.000000       -0.033807         4
        14        19        24        31     9        0.000000        0.061059         1
        14        19        24        31     9      180.000000        0.031081         2
        14        19        24        31     9        0.000000        0.254497         3
        14        19        24        31     9      180.000000       -0.033807         4
        15        12        14        19     9        0.000000       -0.414856         1
        15        12        14        19     9      180.000000       36.017356         2
        15        12        14        19     9        0.000000       -4.165866         3
        15        12        14        19     9      180.000000        0.025250         4
        15        20        19        24     9        0.000000        0.102614         1
        15        20        19        24     9      180.000000       18.114968         2
        15        20        19        24     9        0.000000       -0.791874         3
        15        20        19        24     9      180.000000       -0.971119         4
        15        20        21        22     9        0.000000       -3.606837         1
        15        20        21        22     9      180.000000       -0.362514         2
        15        20        21        22     9        0.000000        0.387711         3
        15        20        21        22     9      180.000000        0.164191         4
        15        20        21        26     9        0.000000        0.050382         1
        15        20        21        26     9      180.000000        0.088073         2
        15        20        21        26     9        0.000000        0.411892         3
        15        20        21        26     9      180.000000       -0.037587         4
        15        20        21        27     9        0.000000        0.050382         1
        15        20        21        27     9      180.000000        0.088073         2
        15        20        21        27     9        0.000000        0.411892         3
        15        20        21        27     9      180.000000       -0.037587         4
        16         2         1        54     9        0.000000        1.310581         1
        16         2         1        54     9      180.000000       10.732554         2
        16         2         1        54     9        0.000000        0.415187         3
        16         2         1        54     9      180.000000        0.376769         4
        16         2         3        17     9        0.000000       -0.783167         1
        16         2         3        17     9      180.000000        0.043842         2
        16         2         3        17     9        0.000000        0.601592         3
        16         2         3        17     9      180.000000        0.167634         4
        17         3         5        53     9        0.000000        0.142113         1
        17         3         5        53     9      180.000000       -0.168423         2
        17         3         5        53     9        0.000000        0.416351         3
        17         3         5        53     9      180.000000       -0.050549         4
        17         3         9        45     9        0.000000        0.036599         1
        17         3         9        45     9      180.000000        0.017181         2
        17         3         9        45     9        0.000000        0.372843         3
        17         3         9        45     9      180.000000        0.011914         4
        17         3         9        46     9        0.000000        0.036599         1
        17         3         9        46     9      180.000000        0.017181         2
        17         3         9        46     9        0.000000        0.372843         3
        17         3         9        46     9      180.000000        0.011914         4
        18        10         5        53     9        0.000000       -0.796801         1
        18        10         5        53     9      180.000000        0.146414         2
        18        10         5        53     9        0.000000        0.563223         3
        18        10         5        53     9      180.000000        0.175350         4
        19        20        21        22     9        0.000000       -3.311658         1
        19        20        21        22     9      180.000000        0.893056         2
        19        20        21        22     9        0.000000       -0.312861         3
        19        20        21        22     9      180.000000        0.089561         4
        19        20        21        26     9        0.000000       -0.010515         1
        19        20        21        26     9      180.000000       -0.166834         2
        19        20        21        26     9        0.000000       -0.357655         3
        19        20        21        26     9      180.000000       -0.002483         4
        19        20        21        27     9        0.000000       -0.010515         1
        19        20        21        27     9      180.000000       -0.166834         2
        19        20        21        27     9        0.000000       -0.357655         3
        19        20        21        27     9      180.000000       -0.002483         4
        19        24        23        22     9        0.000000       -1.384129         1
        19        24        23        22     9      180.000000       -0.653292         2
        19        24        23        22     9        0.000000        0.502380         3
        19        24        23        22     9      180.000000       -0.119672         4
        19        24        23        28     9        0.000000        0.056682         1
        19        24        23        28     9      180.000000        0.029063         2
        19        24        23        28     9        0.000000        0.464816         3
        19        24        23        28     9      180.000000        0.029460         4
        19        24        23        29     9        0.000000        0.056682         1
        19        24        23        29     9      180.000000        0.029063         2
        19        24        23        29     9        0.000000        0.464816         3
        19        24        23        29     9      180.000000        0.029460         4
        20        19        24        23     9        0.000000       -0.581697         1
        20        19        24        23     9      180.000000       -0.178850         2
        20        19        24        23     9        0.000000       -0.539812         3
        20        19        24        23     9      180.000000        0.228285         4
        20        19        24        30     9        0.000000        0.001137         1
        20        19        24        30     9      180.000000       -0.132140         2
        20        19        24        30     9        0.000000       -0.440824         3
        20        19        24        30     9      180.000000        0.030108         4
        20        19        24        31     9        0.000000        0.001137         1
        20        19        24        31     9      180.000000       -0.132140         2
        20        19        24        31     9        0.000000       -0.440824         3
        20        19        24        31     9      180.000000        0.030108         4
        20        21        22        23     9        0.000000        1.757084         1
        20        21        22        23     9      180.000000       -1.262017         2
        20        21        22        23     9        0.000000        0.610032         3
        20        21        22        23     9      180.000000       -0.013762         4
        20        21        22        25     9        0.000000        0.088848         1
        20        21        22        25     9      180.000000        0.098174         2
        20        21        22        25     9        0.000000        0.957104         3
        20        21        22        25     9      180.000000        0.111039         4
        21        20        19        24     9        0.000000        0.173945         1
        21        20        19        24     9      180.000000       16.682661         2
        21        20        19        24     9        0.000000       -0.531422         3
        21        20        19        24     9      180.000000       -0.483502         4
        21        22        23        24     9        0.000000        2.929372         1
        21        22        23        24     9      180.000000       -2.275396         2
        21        22        23        24     9        0.000000        0.136332         3
        21        22        23        24     9      180.000000        0.386228         4
        21        22        23        28     9        0.000000       -0.123649         1
        21        22        23        28     9      180.000000        0.088231         2
        21        22        23        28     9        0.000000        0.293555         3
        21        22        23        28     9      180.000000        0.009401         4
        21        22        23        29     9        0.000000       -0.123649         1
        21        22        23        29     9      180.000000        0.088231         2
        21        22        23        29     9        0.000000        0.293555         3
        21        22        23        29     9      180.000000        0.009401         4
        21        22        25        32     9        0.000000       -0.036256         1
        21        22        25        32     9      180.000000        0.018735         2
        21        22        25        32     9        0.000000        1.024067         3
        21        22        25        32     9      180.000000        0.001601         4
        21        22        25        33     9        0.000000       -0.036256         1
        21        22        25        33     9      180.000000        0.018735         2
        21        22        25        33     9        0.000000        1.024067         3
        21        22        25        33     9      180.000000        0.001601         4
        21        22        25        34     9        0.000000       -0.036256         1
        21        22        25        34     9      180.000000        0.018735         2
        21        22        25        34     9        0.000000        1.024067         3
        21        22        25        34     9      180.000000        0.001601         4
        22        23        24        30     9        0.000000       -0.054085         1
        22        23        24        30     9      180.000000        0.034526         2
        22        23        24        30     9        0.000000        0.373195         3
        22        23        24        30     9      180.000000        0.083514         4
        22        23        24        31     9        0.000000       -0.054085         1
        22        23        24        31     9      180.000000        0.034526         2
        22        23        24        31     9        0.000000        0.373195         3
        22        23        24        31     9      180.000000        0.083514         4
        23        22        21        26     9        0.000000       -0.029691         1
        23        22        21        26     9      180.000000        0.036400         2
        23        22        21        26     9        0.000000        0.631979         3
        23        22        21        26     9      180.000000        0.071457         4
        23        22        21        27     9        0.000000       -0.029691         1
        23        22        21        27     9      180.000000        0.036400         2
        23        22        21        27     9        0.000000        0.631979         3
        23        22        21        27     9      180.000000        0.071457         4
        23        22        25        32     9        0.000000       -0.014100         1
        23        22        25        32     9      180.000000        0.015343         2
        23        22        25        32     9        0.000000        0.884158         3
        23        22        25        32     9      180.000000        0.019132         4
        23        22        25        33     9        0.000000       -0.014100         1
        23        22        25        33     9      180.000000        0.015343         2
        23        22        25        33     9        0.000000        0.884158         3
        23        22        25        33     9      180.000000        0.019132         4
        23        22        25        34     9        0.000000       -0.014100         1
        23        22        25        34     9      180.000000        0.015343         2
        23        22        25        34     9        0.000000        0.884158         3
        23        22        25        34     9      180.000000        0.019132         4
        24        23        22        25     9        0.000000        1.698500         1
        24        23        22        25     9      180.000000       -0.487751         2
        24        23        22        25     9        0.000000        0.450767         3
        24        23        22        25     9      180.000000        0.246699         4
        25        22        21        26     9        0.000000        0.111988         1
        25        22        21        26     9      180.000000        0.004567         2
        25        22        21        26     9        0.000000        0.981665         3
        25        22        21        26     9      180.000000       -0.069874         4
        25        22        21        27     9        0.000000        0.111988         1
        25        22        21        27     9      180.000000        0.004567         2
        25        22        21        27     9        0.000000        0.981665         3
        25        22        21        27     9      180.000000       -0.069874         4
        25        22        23        28     9        0.000000       -0.115413         1
        25        22        23        28     9      180.000000       -0.101300         2
        25        22        23        28     9        0.000000        0.611434         3
        25        22        23        28     9      180.000000       -0.123227         4
        25        22        23        29     9        0.000000       -0.115413         1
        25        22        23        29     9      180.000000       -0.101300         2
        25        22        23        29     9        0.000000        0.611434         3
        25        22        23        29     9      180.000000       -0.123227         4
        28        23        24        30     9        0.000000       -0.014895         1
        28        23        24        30     9      180.000000       -0.022227         2
        28        23        24        30     9        0.000000        0.401862         3
        28        23        24        30     9      180.000000       -0.001746         4
        28        23        24        31     9        0.000000       -0.014895         1
        28        23        24        31     9      180.000000       -0.022227         2
        28        23        24        31     9        0.000000        0.401862         3
        28        23        24        31     9      180.000000       -0.001746         4
        29        23        24        30     9        0.000000       -0.014895         1
        29        23        24        30     9      180.000000       -0.022227         2
        29        23        24        30     9        0.000000        0.401862         3
        29        23        24        30     9      180.000000       -0.001746         4
        29        23        24        31     9        0.000000       -0.014895         1
        29        23        24        31     9      180.000000       -0.022227         2
        29        23        24        31     9        0.000000        0.401862         3
        29        23        24        31     9      180.000000       -0.001746         4
        35         7         6        40     9        0.000000        0.178565         1
        35         7         6        40     9      180.000000        0.124017         2
        35         7         6        40     9        0.000000        0.213224         3
        35         7         6        40     9      180.000000       -0.042705         4
        35         7         6        41     9        0.000000        0.178565         1
        35         7         6        41     9      180.000000        0.124017         2
        35         7         6        41     9        0.000000        0.213224         3
        35         7         6        41     9      180.000000       -0.042705         4
        35         7         8        43     9        0.000000        0.159078         1
        35         7         8        43     9      180.000000        0.098531         2
        35         7         8        43     9        0.000000        0.249228         3
        35         7         8        43     9      180.000000       -0.047820         4
        35         7         8        44     9        0.000000        0.159078         1
        35         7         8        44     9      180.000000        0.098531         2
        35         7         8        44     9        0.000000        0.249228         3
        35         7         8        44     9      180.000000       -0.047820         4
        35        37        38        47     9        0.000000       -0.008626         1
        35        37        38        47     9      180.000000        0.038862         2
        35        37        38        47     9        0.000000        0.235749         3
        35        37        38        47     9      180.000000        0.020475         4
        35        37        38        48     9        0.000000       -0.008626         1
        35        37        38        48     9      180.000000        0.038862         2
        35        37        38        48     9        0.000000        0.235749         3
        35        37        38        48     9      180.000000        0.020475         4
        35        37        38        49     9        0.000000       -0.008626         1
        35        37        38        49     9      180.000000        0.038862         2
        35        37        38        49     9        0.000000        0.235749         3
        35        37        38        49     9      180.000000        0.020475         4
        35        37        39        50     9        0.000000       -0.008626         1
        35        37        39        50     9      180.000000        0.038862         2
        35        37        39        50     9        0.000000        0.235749         3
        35        37        39        50     9      180.000000        0.020475         4
        35        37        39        51     9        0.000000       -0.008626         1
        35        37        39        51     9      180.000000        0.038862         2
        35        37        39        51     9        0.000000        0.235749         3
        35        37        39        51     9      180.000000        0.020475         4
        35        37        39        52     9        0.000000       -0.008626         1
        35        37        39        52     9      180.000000        0.038862         2
        35        37        39        52     9        0.000000        0.235749         3
        35        37        39        52     9      180.000000        0.020475         4
        36        35         7        42     9        0.000000        1.593583         1
        36        35         7        42     9      180.000000        0.703025         2
        36        35         7        42     9        0.000000        0.717740         3
        36        35         7        42     9      180.000000       -0.500486         4
        36        35        37        38     9        0.000000       -0.375518         1
        36        35        37        38     9      180.000000       13.044421         2
        36        35        37        38     9        0.000000       -1.547115         3
        36        35        37        38     9      180.000000       -0.087257         4
        36        35        37        39     9        0.000000       -0.375518         1
        36        35        37        39     9      180.000000       13.044421         2
        36        35        37        39     9        0.000000       -1.547115         3
        36        35        37        39     9      180.000000       -0.087257         4
        37        35         7        42     9        0.000000       -0.215324         1
        37        35         7        42     9      180.000000        0.004504         2
        37        35         7        42     9        0.000000       -0.151551         3
        37        35         7        42     9      180.000000       -0.047823         4
        38        37        39        50     9        0.000000       -0.024574         1
        38        37        39        50     9      180.000000        0.053683         2
        38        37        39        50     9        0.000000        1.208154         3
        38        37        39        50     9      180.000000        0.010416         4
        38        37        39        51     9        0.000000       -0.024574         1
        38        37        39        51     9      180.000000        0.053683         2
        38        37        39        51     9        0.000000        1.208154         3
        38        37        39        51     9      180.000000        0.010416         4
        38        37        39        52     9        0.000000       -0.024574         1
        38        37        39        52     9      180.000000        0.053683         2
        38        37        39        52     9        0.000000        1.208154         3
        38        37        39        52     9      180.000000        0.010416         4
        39        37        38        47     9        0.000000       -0.024574         1
        39        37        38        47     9      180.000000        0.053683         2
        39        37        38        47     9        0.000000        1.208154         3
        39        37        38        47     9      180.000000        0.010416         4
        39        37        38        48     9        0.000000       -0.024574         1
        39        37        38        48     9      180.000000        0.053683         2
        39        37        38        48     9        0.000000        1.208154         3
        39        37        38        48     9      180.000000        0.010416         4
        39        37        38        49     9        0.000000       -0.024574         1
        39        37        38        49     9      180.000000        0.053683         2
        39        37        38        49     9        0.000000        1.208154         3
        39        37        38        49     9      180.000000        0.010416         4
        40         6         5        53     9        0.000000        0.032125         1
        40         6         5        53     9      180.000000        0.014817         2
        40         6         5        53     9        0.000000        0.397995         3
        40         6         5        53     9      180.000000        0.013189         4
        40         6         7        42     9        0.000000        0.092902         1
        40         6         7        42     9      180.000000        0.093401         2
        40         6         7        42     9        0.000000        0.416253         3
        40         6         7        42     9      180.000000       -0.035407         4
        41         6         5        53     9        0.000000        0.032125         1
        41         6         5        53     9      180.000000        0.014817         2
        41         6         5        53     9        0.000000        0.397995         3
        41         6         5        53     9      180.000000        0.013189         4
        41         6         7        42     9        0.000000        0.092902         1
        41         6         7        42     9      180.000000        0.093401         2
        41         6         7        42     9        0.000000        0.416253         3
        41         6         7        42     9      180.000000       -0.035407         4
        42         7         8        43     9        0.000000        0.089169         1
        42         7         8        43     9      180.000000        0.058938         2
        42         7         8        43     9        0.000000        0.395713         3
        42         7         8        43     9      180.000000       -0.024133         4
        42         7         8        44     9        0.000000        0.089169         1
        42         7         8        44     9      180.000000        0.058938         2
        42         7         8        44     9        0.000000        0.395713         3
        42         7         8        44     9      180.000000       -0.024133         4
        43         8         9        45     9        0.000000        0.013436         1
        43         8         9        45     9      180.000000        0.010119         2
        43         8         9        45     9        0.000000        0.296255         3
        43         8         9        45     9      180.000000        0.044245         4
        43         8         9        46     9        0.000000        0.013436         1
        43         8         9        46     9      180.000000        0.010119         2
        43         8         9        46     9        0.000000        0.296255         3
        43         8         9        46     9      180.000000        0.044245         4
        44         8         9        45     9        0.000000        0.013436         1
        44         8         9        45     9      180.000000        0.010119         2
        44         8         9        45     9        0.000000        0.296255         3
        44         8         9        45     9      180.000000        0.044245         4
        44         8         9        46     9        0.000000        0.013436         1
        44         8         9        46     9      180.000000        0.010119         2
        44         8         9        46     9        0.000000        0.296255         3
        44         8         9        46     9      180.000000        0.044245         4
        54        55        59        60     9        0.000000       -0.067225         1
        54        55        59        60     9      180.000000       22.979716         2
        54        55        59        60     9        0.000000       -7.865408         3
        54        55        59        60     9      180.000000        0.062831         4
        54        55        59        64     9        0.000000       -0.672133         1
        54        55        59        64     9      180.000000        5.270649         2
        54        55        59        64     9        0.000000       -0.799453         3
        54        55        59        64     9      180.000000        0.292222         4
        54        56        60        59     9        0.000000       -0.164325         1
        54        56        60        59     9      180.000000       19.416720         2
        54        56        60        59     9        0.000000       -3.867112         3
        54        56        60        59     9      180.000000       -0.542909         4
        54        56        60        61     9        0.000000        0.289959         1
        54        56        60        61     9      180.000000        3.747204         2
        54        56        60        61     9        0.000000        0.418572         3
        54        56        60        61     9      180.000000        0.141388         4
        55        54        56        58     9        0.000000        0.063685         1
        55        54        56        58     9      180.000000        1.939241         2
        55        54        56        58     9        0.000000        0.309809         3
        55        54        56        58     9      180.000000        0.085022         4
        55        54        56        60     9        0.000000        0.368950         1
        55        54        56        60     9      180.000000       18.865803         2
        55        54        56        60     9        0.000000       -4.363916         3
        55        54        56        60     9      180.000000       -0.907607         4
        55        59        60        56     9        0.000000        0.093561         1
        55        59        60        56     9      180.000000       18.507615         2
        55        59        60        56     9        0.000000       -5.810841         3
        55        59        60        56     9      180.000000       -0.384879         4
        55        59        60        61     9        0.000000        0.098152         1
        55        59        60        61     9      180.000000       10.617361         2
        55        59        60        61     9        0.000000       -2.111022         3
        55        59        60        61     9      180.000000        0.016222         4
        55        59        64        63     9        0.000000       -0.174707         1
        55        59        64        63     9      180.000000       12.419250         2
        55        59        64        63     9        0.000000       -0.458971         3
        55        59        64        63     9      180.000000       -0.165726         4
        55        59        64        68     9        0.000000        0.005998         1
        55        59        64        68     9      180.000000        9.317307         2
        55        59        64        68     9        0.000000       -0.147718         3
        55        59        64        68     9      180.000000        0.059934         4
        56        54        55        57     9        0.000000        1.018333         1
        56        54        55        57     9      180.000000       23.514375         2
        56        54        55        57     9        0.000000        0.392466         3
        56        54        55        57     9      180.000000       -1.540979         4
        56        54        55        59     9        0.000000       -0.380423         1
        56        54        55        59     9      180.000000       31.644076         2
        56        54        55        59     9        0.000000       -6.190301         3
        56        54        55        59     9      180.000000       -0.631938         4
        56        60        59        64     9        0.000000        0.310447         1
        56        60        59        64     9      180.000000       11.549291         2
        56        60        59        64     9        0.000000       -1.747304         3
        56        60        59        64     9      180.000000       -0.131921         4
        56        60        61        62     9        0.000000        0.259109         1
        56        60        61        62     9      180.000000       15.388212         2
        56        60        61        62     9        0.000000       -0.078981         3
        56        60        61        62     9      180.000000       -0.192222         4
        56        60        61        65     9        0.000000       -0.284318         1
        56        60        61        65     9      180.000000       11.360273         2
        56        60        61        65     9        0.000000       -0.182606         3
        56        60        61        65     9      180.000000        0.119227         4
        57        55        59        60     9        0.000000        1.522801         1
        57        55        59        60     9      180.000000       14.963307         2
        57        55        59        60     9        0.000000        0.581322         3
        57        55        59        60     9      180.000000       -0.510129         4
        57        55        59        64     9        0.000000        0.101058         1
        57        55        59        64     9      180.000000        6.533423         2
        57        55        59        64     9        0.000000        0.315988         3
        57        55        59        64     9      180.000000        0.065140         4
        58        56        60        59     9        0.000000        0.098962         1
        58        56        60        59     9      180.000000        1.084389         2
        58        56        60        59     9        0.000000        0.319422         3
        58        56        60        59     9      180.000000        0.098922         4
        58        56        60        61     9        0.000000       -0.290447         1
        58        56        60        61     9      180.000000        0.806883         2
        58        56        60        61     9        0.000000        0.150753         3
        58        56        60        61     9      180.000000       -0.072024         4
        59        60        61        62     9        0.000000       -0.058617         1
        59        60        61        62     9      180.000000       17.913815         2
        59        60        61        62     9        0.000000       -1.554248         3
        59        60        61        62     9      180.000000       -0.373858         4
        59        60        61        65     9        0.000000        0.145418         1
        59        60        61        65     9      180.000000       11.922766         2
        59        60        61        65     9        0.000000       -0.212949         3
        59        60        61        65     9      180.000000        0.009437         4
        59        64        63        62     9        0.000000       -0.120490         1
        59        64        63        62     9      180.000000       19.710766         2
        59        64        63        62     9        0.000000       -1.393419         3
        59        64        63        62     9      180.000000       -0.476588         4
        59        64        63        67     9        0.000000        0.173109         1
        59        64        63        67     9      180.000000       22.841905         2
        59        64        63        67     9        0.000000        0.360794         3
        59        64        63        67     9      180.000000       -1.009713         4
        60        59        64        63     9        0.000000        0.017391         1
        60        59        64        63     9      180.000000       18.026099         2
        60        59        64        63     9        0.000000       -1.844416         3
        60        59        64        63     9      180.000000       -0.356132         4
        60        59        64        68     9        0.000000        0.227073         1
        60        59        64        68     9      180.000000       13.048393         2
        60        59        64        68     9        0.000000       -0.483093         3
        60        59        64        68     9      180.000000        0.002423         4
        60        61        62        63     9        0.000000        0.035761         1
        60        61        62        63     9      180.000000       20.821135         2
        60        61        62        63     9        0.000000       -1.553357         3
        60        61        62        63     9      180.000000       -0.503859         4
        60        61        62        66     9        0.000000        0.015335         1
        60        61        62        66     9      180.000000       16.014762         2
        60        61        62        66     9        0.000000       -0.684293         3
        60        61        62        66     9      180.000000       -0.008200         4
        61        60        59        64     9        0.000000       -0.068259         1
        61        60        59        64     9      180.000000       10.793099         2
        61        60        59        64     9        0.000000       -1.379569         3
        61        60        59        64     9      180.000000       -0.059743         4
        61        62        63        64     9        0.000000       -0.080091         1
        61        62        63        64     9      180.000000       16.447311         2
        61        62        63        64     9        0.000000       -1.195285         3
        61        62        63        64     9      180.000000       -0.275499         4
        61        62        63        67     9        0.000000        0.331840         1
        61        62        63        67     9      180.000000       17.560388         2
        61        62        63        67     9        0.000000        0.213830         3
        61        62        63        67     9      180.000000       -0.474058         4
        62        63        64        68     9        0.000000        0.028829         1
        62        63        64        68     9      180.000000       13.932801         2
        62        63        64        68     9        0.000000       -0.574367         3
        62        63        64        68     9      180.000000        0.103756         4
        63        62        61        65     9        0.000000        0.094402         1
        63        62        61        65     9      180.000000       14.522691         2
        63        62        61        65     9        0.000000       -0.408746         3
        63        62        61        65     9      180.000000        0.141858         4
        64        63        62        66     9        0.000000       -0.051896         1
        64        63        62        66     9      180.000000       12.715051         2
        64        63        62        66     9        0.000000       -0.618034         3
        64        63        62        66     9      180.000000        0.119946         4
        65        61        62        66     9        0.000000       -0.104548         1
        65        61        62        66     9      180.000000       12.244257         2
        65        61        62        66     9        0.000000       -0.727198         3
        65        61        62        66     9      180.000000        0.263997         4
        66        62        63        67     9        0.000000        0.146114         1
        66        62        63        67     9      180.000000       12.684735         2
        66        62        63        67     9        0.000000       -0.095565         3
        66        62        63        67     9      180.000000        0.216310         4
        67        63        64        68     9        0.000000        0.190398         1
        67        63        64        68     9      180.000000       13.973533         2
        67        63        64        68     9        0.000000       -0.066402         3
        67        63        64        68     9      180.000000        0.291739         4

[ dihedrals ] ; impropers
;       ai        aj        ak        al funct           phase               k        pn
         1         2         4        54     4      180.000000        9.764469         2
         1         4        54         2     4      180.000000        9.764469         2
         1        54         2         4     4      180.000000        9.764469         2
        11        10        12        13     4      180.000000       14.088156         2
        11        12        13        10     4      180.000000       14.088156         2
        11        13        10        12     4      180.000000       14.088156         2
        35         7        36        37     4      180.000000       15.867169         2
        35        36        37         7     4      180.000000       15.867169         2
        35        37         7        36     4      180.000000       15.867169         2

[ pairs ]
;       ai        aj funct
         1         5     1
         1         9     1
         1        17     1
         1        57     1
         1        58     1
         1        59     1
         1        60     1
         2         6     1
         2         8     1
         2        10     1
         2        45     1
         2        46     1
         2        53     1
         2        55     1
         2        56     1
         3         4     1
         3         7     1
         3        11     1
         3        18     1
         3        40     1
         3        41     1
         3        43     1
         3        44     1
         3        54     1
         4        16     1
         4        55     1
         4        56     1
         5         8     1
         5        12     1
         5        13     1
         5        16     1
         5        35     1
         5        42     1
         5        45     1
         5        46     1
         6         9     1
         6        11     1
         6        17     1
         6        18     1
         6        36     1
         6        37     1
         6        43     1
         6        44     1
         7        10     1
         7        38     1
         7        39     1
         7        45     1
         7        46     1
         7        53     1
         8        17     1
         8        36     1
         8        37     1
         8        40     1
         8        41     1
         9        10     1
         9        16     1
         9        35     1
         9        42     1
         9        53     1
        10        14     1
        10        15     1
        10        17     1
        10        40     1
        10        41     1
        11        19     1
        11        20     1
        11        53     1
        12        18     1
        12        21     1
        12        24     1
        13        14     1
        13        15     1
        13        18     1
        14        21     1
        14        23     1
        14        30     1
        14        31     1
        15        22     1
        15        24     1
        15        26     1
        15        27     1
        16        17     1
        16        54     1
        17        45     1
        17        46     1
        17        53     1
        18        53     1
        19        22     1
        19        26     1
        19        27     1
        19        28     1
        19        29     1
        20        23     1
        20        25     1
        20        30     1
        20        31     1
        21        24     1
        21        28     1
        21        29     1
        21        32     1
        21        33     1
        21        34     1
        22        30     1
        22        31     1
        23        26     1
        23        27     1
        23        32     1
        23        33     1
        23        34     1
        24        25     1
        25        26     1
        25        27     1
        25        28     1
        25        29     1
        28        30     1
        28        31     1
        29        30     1
        29        31     1
        35        40     1
        35        41     1
        35        43     1
        35        44     1
        35        47     1
        35        48     1
        35        49     1
        35        50     1
        35        51     1
        35        52     1
        36        38     1
        36        39     1
        36        42     1
        37        42     1
        38        50     1
        38        51     1
        38        52     1
        39        47     1
        39        48     1
        39        49     1
        40        42     1
        40        53     1
        41        42     1
        41        53     1
        42        43     1
        42        44     1
        43        45     1
        43        46     1
        44        45     1
        44        46     1
        54        61     1
        54        64     1
        55        58     1
        55        61     1
        55        63     1
        55        68     1
        56        57     1
        56        62     1
        56        64     1
        56        65     1
        57        60     1
        57        64     1
        58        59     1
        58        61     1
        59        62     1
        59        65     1
        59        67     1
        60        63     1
        60        66     1
        60        68     1
        61        64     1
        61        67     1
        62        68     1
        63        65     1
        64        66     1
        65        66     1
        66        67     1
        67        68     1
