; ITP file created by ByteFF-ML, 2026-02-21 08:14:38.951904

[ atomtypes ]
;name           bonded.type        at.num        mass        charge   ptype           sigma         epsilon
 c0bf                                   6      0.0000       0.00000       A     3.39898e-01     4.52593e-01
 n1bf                                   7      0.0000       0.00000       A     3.18321e-01     7.03038e-01
 c2bf                                   6      0.0000       0.00000       A     3.31223e-01     4.10380e-01
 n3bf                                   7      0.0000       0.00000       A     3.36731e-01     4.77019e-01
 n4bf                                   7      0.0000       0.00000       A     3.26914e-01     6.41248e-01
 c5bf                                   6      0.0000       0.00000       A     3.39407e-01     4.43685e-01
 c6bf                                   6      0.0000       0.00000       A     3.31180e-01     4.15840e-01
 c7bf                                   6      0.0000       0.00000       A     3.31390e-01     4.13213e-01
 n8bf                                   7      0.0000       0.00000       A     3.38348e-01     3.95736e-01
 c9bf                                   6      0.0000       0.00000       A     3.31424e-01     4.14242e-01
 n10bf                                  7      0.0000       0.00000       A     3.38348e-01     3.95736e-01
 c11bf                                  6      0.0000       0.00000       A     3.31390e-01     4.13213e-01
 c12bf                                  6      0.0000       0.00000       A     3.31596e-01     4.15486e-01
 c13bf                                  6      0.0000       0.00000       A     3.31511e-01     4.14036e-01
 c14bf                                  6      0.0000       0.00000       A     3.31491e-01     4.13364e-01
 c15bf                                  6      0.0000       0.00000       A     3.31500e-01     4.12376e-01
 c16bf                                  6      0.0000       0.00000       A     3.31412e-01     4.12298e-01
 c17bf                                  6      0.0000       0.00000       A     3.31338e-01     4.14041e-01
 c18bf                                  6      0.0000       0.00000       A     3.31495e-01     4.12332e-01
 c19bf                                  6      0.0000       0.00000       A     3.31470e-01     4.12993e-01
 c20bf                                  6      0.0000       0.00000       A     3.31492e-01     4.12697e-01
 c21bf                                  6      0.0000       0.00000       A     3.31464e-01     4.12774e-01
 cl22bf                                17      0.0000       0.00000       A     3.46727e-01     1.10410e+00
 c23bf                                  6      0.0000       0.00000       A     3.31525e-01     4.12943e-01
 c24bf                                  6      0.0000       0.00000       A     3.31605e-01     4.15034e-01
 c25bf                                  6      0.0000       0.00000       A     3.31448e-01     4.16414e-01
 o26bf                                  8      0.0000       0.00000       A     3.04556e-01     6.16025e-01
 h27bf                                  1      0.0000       0.00000       A     2.42205e-01     8.61909e-02
 h28bf                                  1      0.0000       0.00000       A     2.42205e-01     8.61909e-02
 h29bf                                  1      0.0000       0.00000       A     2.42205e-01     8.61909e-02
 h30bf                                  1      0.0000       0.00000       A     1.10384e-01     3.90095e-02
 h31bf                                  1      0.0000       0.00000       A     1.10491e-01     4.02241e-02
 h32bf                                  1      0.0000       0.00000       A     2.53761e-01     6.66742e-02
 h33bf                                  1      0.0000       0.00000       A     2.44939e-01     6.80085e-02
 h34bf                                  1      0.0000       0.00000       A     2.53761e-01     6.66742e-02
 h35bf                                  1      0.0000       0.00000       A     2.62565e-01     6.77340e-02
 h36bf                                  1      0.0000       0.00000       A     2.62513e-01     6.74259e-02
 h37bf                                  1      0.0000       0.00000       A     2.62472e-01     6.74738e-02
 h38bf                                  1      0.0000       0.00000       A     2.62472e-01     6.74738e-02
 h39bf                                  1      0.0000       0.00000       A     2.62502e-01     6.73461e-02
 h40bf                                  1      0.0000       0.00000       A     2.62496e-01     6.71211e-02
 h41bf                                  1      0.0000       0.00000       A     2.62435e-01     6.74259e-02
 h42bf                                  1      0.0000       0.00000       A     2.62568e-01     6.76574e-02
 h43bf                                  1      0.0000       0.00000       A     1.10384e-01     3.90095e-02

[ moleculetype ]
;name             nrexcl
 CAT-13m               3

[ atoms ]
;       nr            type      resi   res      atom      cgnr      charge          mass ; qtot
         1            c0bf         1   UNL        c0         1     0.07241       12.0110 ; qtot    0.072
         2            n1bf         1   UNL        n1         2    -0.59209       14.0070 ; qtot   -0.520
         3            c2bf         1   UNL        c2         3     0.93776       12.0110 ; qtot    0.418
         4            n3bf         1   UNL        n3         4    -0.58908       14.0070 ; qtot   -0.171
         5            n4bf         1   UNL        n4         5    -0.61842       14.0070 ; qtot   -0.789
         6            c5bf         1   UNL        c5         6     0.15423       12.0110 ; qtot   -0.635
         7            c6bf         1   UNL        c6         7    -0.23637       12.0110 ; qtot   -0.872
         8            c7bf         1   UNL        c7         8     0.14010       12.0110 ; qtot   -0.731
         9            n8bf         1   UNL        n8         9    -0.14734       14.0070 ; qtot   -0.879
        10            c9bf         1   UNL        c9        10     0.11469       12.0110 ; qtot   -0.764
        11           n10bf         1   UNL       n10        11    -0.14734       14.0070 ; qtot   -0.911
        12           c11bf         1   UNL       c11        12     0.14010       12.0110 ; qtot   -0.771
        13           c12bf         1   UNL       c12        13    -0.13054       12.0110 ; qtot   -0.902
        14           c13bf         1   UNL       c13        14    -0.07056       12.0110 ; qtot   -0.972
        15           c14bf         1   UNL       c14        15    -0.09730       12.0110 ; qtot   -1.070
        16           c15bf         1   UNL       c15        16    -0.09314       12.0110 ; qtot   -1.163
        17           c16bf         1   UNL       c16        17    -0.02925       12.0110 ; qtot   -1.192
        18           c17bf         1   UNL       c17        18    -0.02656       12.0110 ; qtot   -1.219
        19           c18bf         1   UNL       c18        19    -0.10326       12.0110 ; qtot   -1.322
        20           c19bf         1   UNL       c19        20    -0.10402       12.0110 ; qtot   -1.426
        21           c20bf         1   UNL       c20        21    -0.09512       12.0110 ; qtot   -1.521
        22           c21bf         1   UNL       c21        22     0.12011       12.0110 ; qtot   -1.401
        23          cl22bf         1   UNL      cl22        23    -0.20970       35.4530 ; qtot   -1.611
        24           c23bf         1   UNL       c23        24    -0.09584       12.0110 ; qtot   -1.707
        25           c24bf         1   UNL       c24        25    -0.05830       12.0110 ; qtot   -1.765
        26           c25bf         1   UNL       c25        26     0.55553       12.0110 ; qtot   -1.209
        27           o26bf         1   UNL       o26        27    -0.38409       15.9990 ; qtot   -1.593
        28           h27bf         1   UNL       h27        28     0.08958        1.0080 ; qtot   -1.504
        29           h28bf         1   UNL       h28        29     0.08958        1.0080 ; qtot   -1.414
        30           h29bf         1   UNL       h29        30     0.08958        1.0080 ; qtot   -1.325
        31           h30bf         1   UNL       h30        31     0.38417        1.0080 ; qtot   -0.940
        32           h31bf         1   UNL       h31        32     0.41444        1.0080 ; qtot   -0.526
        33           h32bf         1   UNL       h32        33     0.04032        1.0080 ; qtot   -0.486
        34           h33bf         1   UNL       h33        34     0.05254        1.0080 ; qtot   -0.433
        35           h34bf         1   UNL       h34        35     0.04032        1.0080 ; qtot   -0.393
        36           h35bf         1   UNL       h35        36     0.12975        1.0080 ; qtot   -0.263
        37           h36bf         1   UNL       h36        37     0.12026        1.0080 ; qtot   -0.143
        38           h37bf         1   UNL       h37        38     0.11650        1.0080 ; qtot   -0.026
        39           h38bf         1   UNL       h38        39     0.11993        1.0080 ; qtot    0.094
        40           h39bf         1   UNL       h39        40     0.12261        1.0080 ; qtot    0.216
        41           h40bf         1   UNL       h40        41     0.13516        1.0080 ; qtot    0.351
        42           h41bf         1   UNL       h41        42     0.13341        1.0080 ; qtot    0.485
        43           h42bf         1   UNL       h42        43     0.13108        1.0080 ; qtot    0.616
        44           h43bf         1   UNL       h43        44     0.38416        1.0080 ; qtot    1.000

[ bonds ]
;       ai        aj funct               r               k
         1         2     1        0.146770   194545.402100
         1        28     1        0.109019   312430.214990
         1        29     1        0.109019   312430.214990
         1        30     1        0.109019   312430.214990
         2         3     1        0.135571   306128.141602
         2        26     1        0.142338   150517.523022
         3         4     1        0.133057   418437.999219
         3         5     1        0.133410   384625.308643
         4        31     1        0.101331   425032.293750
         4        44     1        0.101331   425032.293750
         5         6     1        0.148717   142212.931665
         5        32     1        0.101333   425223.924219
         6         7     1        0.151814   173950.885327
         6        13     1        0.152290   165586.971265
         6        26     1        0.154900   123401.262646
         7         8     1        0.139984   286899.668652
         7        12     1        0.139984   286899.668652
         8         9     1        0.133585   334866.557471
         8        33     1        0.108856   314343.761670
         9        10     1        0.133880   296698.742725
        10        11     1        0.133880   296698.742725
        10        34     1        0.108797   314543.589551
        11        12     1        0.133585   334866.557471
        12        35     1        0.108856   314343.761670
        13        14     1        0.140099   293054.112012
        13        25     1        0.139914   296509.002002
        14        15     1        0.139662   313971.788135
        14        36     1        0.108548   320727.094141
        15        16     1        0.139603   315551.360498
        15        37     1        0.108615   320003.653369
        16        17     1        0.140533   285700.343848
        16        38     1        0.108587   318592.753613
        17        18     1        0.148300   214212.181226
        17        25     1        0.140379   287204.990332
        18        19     1        0.140642   283730.615527
        18        24     1        0.140548   284644.231152
        19        20     1        0.139639   316467.197852
        19        39     1        0.108557   319942.849512
        20        21     1        0.139818   306197.015186
        20        40     1        0.108593   321221.901172
        21        22     1        0.139667   296743.100684
        21        41     1        0.108450   326068.844531
        22        23     1        0.175898   146278.069189
        22        24     1        0.139434   307507.503027
        24        42     1        0.108450   323511.456250
        25        43     1        0.108523   319792.691309
        26        27     1        0.120294   722524.500000

[ angles ]
;       ai        aj        ak funct           theta             cth
         1         2         3     1      126.578964      468.028818
         1         2        26     1      123.201210      536.129777
         2         1        28     1      109.237282      484.028775
         2         1        29     1      109.237282      484.028775
         2         1        30     1      109.237282      484.028775
         2         3         4     1      123.852600      626.812755
         2         3         5     1      111.292770      589.852705
         2        26         6     1      106.258102      167.360000
         2        26        27     1      124.797226      645.760843
         3         2        26     1      109.846664      841.043629
         3         4        31     1      121.296143      450.934533
         3         4        44     1      121.296143      450.934469
         3         5         6     1      111.990768      630.427788
         3         5        32     1      123.631088      426.957038
         4         3         5     1      125.366844      617.792601
         5         6         7     1      110.951393      600.318834
         5         6        13     1      110.973190      597.132186
         5         6        26     1      100.340065      338.132747
         6         5        32     1      120.856003      368.450691
         6         7         8     1      121.851120      512.784582
         6         7        12     1      121.851120      512.784582
         6        13        14     1      120.059372      486.033917
         6        13        25     1      119.843239      445.429083
         6        26        27     1      127.689163      360.202364
         7         6        13     1      114.336044      488.629030
         7         6        26     1      110.961655      580.537470
         7         8         9     1      122.470985      765.968294
         7         8        33     1      120.994217      371.773484
         7        12        11     1      122.470985      765.968294
         7        12        35     1      120.994217      371.773484
         8         7        12     1      115.973656      714.929253
         8         9        10     1      116.207840      859.570227
         9         8        33     1      116.327560      375.419608
         9        10        11     1      126.702049      712.523657
         9        10        34     1      116.609718      374.473937
        10        11        12     1      116.207840      859.570227
        11        10        34     1      116.609718      374.473937
        11        12        35     1      116.327560      375.419608
        13         6        26     1      111.331772      601.063177
        13        14        15     1      119.643265      675.464268
        13        14        36     1      120.455734      402.169284
        13        25        17     1      121.112106      665.366448
        13        25        43     1      119.843460      402.017178
        14        13        25     1      119.717934      692.053238
        14        15        16     1      120.366478      724.982830
        14        15        37     1      119.830856      430.852405
        15        14        36     1      119.808311      423.195678
        15        16        17     1      120.453354      706.439696
        15        16        38     1      119.753372      429.073682
        16        15        37     1      119.786987      435.444935
        16        17        18     1      120.861000      512.433095
        16        17        25     1      118.328903      672.300475
        17        16        38     1      119.763222      426.773171
        17        18        19     1      120.944702      503.301695
        17        18        24     1      120.427002      481.644279
        17        25        43     1      119.055099      415.811622
        18        17        25     1      120.846756      422.900564
        18        19        20     1      120.709496      710.226339
        18        19        39     1      119.625290      429.265114
        18        24        22     1      119.954468      654.295153
        18        24        42     1      120.525940      413.949137
        19        18        24     1      118.518814      610.093928
        19        20        21     1      120.716507      706.259979
        19        20        40     1      119.854904      434.295638
        20        19        39     1      119.665443      434.119208
        20        21        22     1      118.458839      608.116654
        20        21        41     1      121.243332      419.806776
        21        20        40     1      119.403748      439.510603
        21        22        23     1      119.263084      362.742700
        21        22        24     1      121.578903      646.790244
        22        21        41     1      120.373581      408.925573
        22        24        42     1      119.578125      413.311731
        23        22        24     1      119.060081      368.288083
        28         1        29     1      109.825012      349.354041
        28         1        30     1      109.825012      349.354041
        29         1        30     1      109.825012      349.354041
        31         4        44     1      117.458168      314.236876

[ dihedrals ] ; propers for gromacs 4.5 or higher, use funct 9
;       ai        aj        ak        al funct           phase               k        pn
         1         2         3         4     9        0.000000        1.750031         1
         1         2         3         4     9      180.000000        7.527046         2
         1         2         3         4     9        0.000000       -0.053234         3
         1         2         3         4     9      180.000000       -0.107064         4
         1         2         3         5     9        0.000000       -2.846354         1
         1         2         3         5     9      180.000000        5.774882         2
         1         2         3         5     9        0.000000       -0.204669         3
         1         2         3         5     9      180.000000        0.057004         4
         1         2        26         6     9        0.000000       -0.632896         1
         1         2        26         6     9      180.000000        5.654059         2
         1         2        26         6     9        0.000000        0.133244         3
         1         2        26         6     9      180.000000       -0.152725         4
         1         2        26        27     9        0.000000       -0.474520         1
         1         2        26        27     9      180.000000        9.266218         2
         1         2        26        27     9        0.000000       -0.332433         3
         1         2        26        27     9      180.000000        0.290815         4
         2         3         4        31     9        0.000000       -0.736374         1
         2         3         4        31     9      180.000000        6.300565         2
         2         3         4        31     9        0.000000        0.313029         3
         2         3         4        31     9      180.000000       -0.635641         4
         2         3         4        44     9        0.000000       -0.736375         1
         2         3         4        44     9      180.000000        6.300565         2
         2         3         4        44     9        0.000000        0.313029         3
         2         3         4        44     9      180.000000       -0.635641         4
         2         3         5         6     9        0.000000       -1.468793         1
         2         3         5         6     9      180.000000       21.694760         2
         2         3         5         6     9        0.000000       -1.434833         3
         2         3         5         6     9      180.000000       -2.618229         4
         2         3         5        32     9        0.000000       -0.687888         1
         2         3         5        32     9      180.000000        8.730158         2
         2         3         5        32     9        0.000000        0.081196         3
         2         3         5        32     9      180.000000       -0.864303         4
         2        26         6         5     9        0.000000        0.479472         1
         2        26         6         5     9      180.000000        8.060548         2
         2        26         6         5     9        0.000000       -0.165451         3
         2        26         6         5     9      180.000000       -0.407909         4
         2        26         6         7     9        0.000000        0.619815         1
         2        26         6         7     9      180.000000        1.011616         2
         2        26         6         7     9        0.000000        0.352245         3
         2        26         6         7     9      180.000000        0.704493         4
         2        26         6        13     9        0.000000        0.581964         1
         2        26         6        13     9      180.000000        0.420672         2
         2        26         6        13     9        0.000000        0.322292         3
         2        26         6        13     9      180.000000        0.810899         4
         3         2         1        28     9        0.000000        0.021130         1
         3         2         1        28     9      180.000000        0.000117         2
         3         2         1        28     9        0.000000        0.183870         3
         3         2         1        28     9      180.000000       -0.015824         4
         3         2         1        29     9        0.000000        0.021130         1
         3         2         1        29     9      180.000000        0.000117         2
         3         2         1        29     9        0.000000        0.183870         3
         3         2         1        29     9      180.000000       -0.015824         4
         3         2         1        30     9        0.000000        0.021130         1
         3         2         1        30     9      180.000000        0.000117         2
         3         2         1        30     9        0.000000        0.183870         3
         3         2         1        30     9      180.000000       -0.015824         4
         3         2        26         6     9        0.000000       -2.909503         1
         3         2        26         6     9      180.000000       11.037940         2
         3         2        26         6     9        0.000000       -1.450578         3
         3         2        26         6     9      180.000000       -0.318175         4
         3         2        26        27     9        0.000000        1.919782         1
         3         2        26        27     9      180.000000       16.902805         2
         3         2        26        27     9        0.000000       -0.512026         3
         3         2        26        27     9      180.000000       -0.829278         4
         3         5         6         7     9        0.000000        0.153041         1
         3         5         6         7     9      180.000000        0.665967         2
         3         5         6         7     9        0.000000        0.227416         3
         3         5         6         7     9      180.000000        0.184122         4
         3         5         6        13     9        0.000000        0.379101         1
         3         5         6        13     9      180.000000        0.656682         2
         3         5         6        13     9        0.000000        0.248764         3
         3         5         6        13     9      180.000000        0.241282         4
         3         5         6        26     9        0.000000       -2.345377         1
         3         5         6        26     9      180.000000        6.592977         2
         3         5         6        26     9        0.000000       -0.387533         3
         3         5         6        26     9      180.000000       -1.629357         4
         4         3         2        26     9        0.000000        1.364836         1
         4         3         2        26     9      180.000000       12.963142         2
         4         3         2        26     9        0.000000       -0.244313         3
         4         3         2        26     9      180.000000       -0.773659         4
         4         3         5         6     9        0.000000        2.043384         1
         4         3         5         6     9      180.000000       17.030571         2
         4         3         5         6     9        0.000000        0.777693         3
         4         3         5         6     9      180.000000       -1.856044         4
         4         3         5        32     9        0.000000       -0.636250         1
         4         3         5        32     9      180.000000        7.940921         2
         4         3         5        32     9        0.000000        0.477761         3
         4         3         5        32     9      180.000000       -0.464327         4
         5         3         2        26     9        0.000000       -1.601102         1
         5         3         2        26     9      180.000000       14.889454         2
         5         3         2        26     9        0.000000       -2.798355         3
         5         3         2        26     9      180.000000       -1.339956         4
         5         3         4        31     9        0.000000       -1.593665         1
         5         3         4        31     9      180.000000        6.675008         2
         5         3         4        31     9        0.000000        0.023895         3
         5         3         4        31     9      180.000000       -0.518999         4
         5         3         4        44     9        0.000000       -1.593666         1
         5         3         4        44     9      180.000000        6.675008         2
         5         3         4        44     9        0.000000        0.023895         3
         5         3         4        44     9      180.000000       -0.518999         4
         5         6         7         8     9        0.000000       -0.967764         1
         5         6         7         8     9      180.000000        0.646005         2
         5         6         7         8     9        0.000000        0.048674         3
         5         6         7         8     9      180.000000        0.173990         4
         5         6         7        12     9        0.000000       -0.967764         1
         5         6         7        12     9      180.000000        0.646005         2
         5         6         7        12     9        0.000000        0.048674         3
         5         6         7        12     9      180.000000        0.173990         4
         5         6        13        14     9        0.000000       -0.360823         1
         5         6        13        14     9      180.000000        1.296243         2
         5         6        13        14     9        0.000000        0.125904         3
         5         6        13        14     9      180.000000        0.208792         4
         5         6        13        25     9        0.000000       -0.198461         1
         5         6        13        25     9      180.000000        1.351922         2
         5         6        13        25     9        0.000000        0.046473         3
         5         6        13        25     9      180.000000        0.212606         4
         5         6        26        27     9        0.000000        6.662363         1
         5         6        26        27     9      180.000000        4.837293         2
         5         6        26        27     9        0.000000        0.101161         3
         5         6        26        27     9      180.000000        0.395566         4
         6         7         8         9     9        0.000000        0.001805         1
         6         7         8         9     9      180.000000       13.367035         2
         6         7         8         9     9        0.000000        0.096525         3
         6         7         8         9     9      180.000000       -0.350762         4
         6         7         8        33     9        0.000000        0.044924         1
         6         7         8        33     9      180.000000       11.401745         2
         6         7         8        33     9        0.000000       -0.205048         3
         6         7         8        33     9      180.000000        0.099142         4
         6         7        12        11     9        0.000000        0.001805         1
         6         7        12        11     9      180.000000       13.367035         2
         6         7        12        11     9        0.000000        0.096525         3
         6         7        12        11     9      180.000000       -0.350762         4
         6         7        12        35     9        0.000000        0.044924         1
         6         7        12        35     9      180.000000       11.401744         2
         6         7        12        35     9        0.000000       -0.205048         3
         6         7        12        35     9      180.000000        0.099141         4
         6        13        14        15     9        0.000000        0.170093         1
         6        13        14        15     9      180.000000       15.011551         2
         6        13        14        15     9        0.000000       -0.220302         3
         6        13        14        15     9      180.000000       -0.207438         4
         6        13        14        36     9        0.000000       -0.021485         1
         6        13        14        36     9      180.000000       12.566967         2
         6        13        14        36     9        0.000000       -0.335392         3
         6        13        14        36     9      180.000000        0.190349         4
         6        13        25        17     9        0.000000        0.171600         1
         6        13        25        17     9      180.000000       14.714860         2
         6        13        25        17     9        0.000000       -0.123186         3
         6        13        25        17     9      180.000000       -0.236255         4
         6        13        25        43     9        0.000000       -0.014551         1
         6        13        25        43     9      180.000000       12.778719         2
         6        13        25        43     9        0.000000       -0.307366         3
         6        13        25        43     9      180.000000        0.177193         4
         7         6         5        32     9        0.000000        1.121549         1
         7         6         5        32     9      180.000000        0.374506         2
         7         6         5        32     9        0.000000        0.144022         3
         7         6         5        32     9      180.000000       -0.013571         4
         7         6        13        14     9        0.000000        0.036077         1
         7         6        13        14     9      180.000000        0.581272         2
         7         6        13        14     9        0.000000        0.193327         3
         7         6        13        14     9      180.000000        0.067844         4
         7         6        13        25     9        0.000000       -0.129193         1
         7         6        13        25     9      180.000000        0.683109         2
         7         6        13        25     9        0.000000        0.144808         3
         7         6        13        25     9      180.000000        0.052601         4
         7         6        26        27     9        0.000000       -0.706375         1
         7         6        26        27     9      180.000000        1.212957         2
         7         6        26        27     9        0.000000       -0.339028         3
         7         6        26        27     9      180.000000        0.365624         4
         7         8         9        10     9        0.000000       -0.327218         1
         7         8         9        10     9      180.000000       21.178725         2
         7         8         9        10     9        0.000000       -1.173436         3
         7         8         9        10     9      180.000000       -0.136748         4
         7        12        11        10     9        0.000000       -0.327218         1
         7        12        11        10     9      180.000000       21.178725         2
         7        12        11        10     9        0.000000       -1.173436         3
         7        12        11        10     9      180.000000       -0.136748         4
         8         7         6        13     9        0.000000       -0.040312         1
         8         7         6        13     9      180.000000        0.129932         2
         8         7         6        13     9        0.000000        0.049198         3
         8         7         6        13     9      180.000000        0.061231         4
         8         7         6        26     9        0.000000        0.294144         1
         8         7         6        26     9      180.000000       -0.755511         2
         8         7         6        26     9        0.000000        0.028641         3
         8         7         6        26     9      180.000000        0.163999         4
         8         7        12        11     9        0.000000        0.023105         1
         8         7        12        11     9      180.000000       15.507202         2
         8         7        12        11     9        0.000000       -0.447163         3
         8         7        12        11     9      180.000000       -0.399936         4
         8         7        12        35     9        0.000000        0.137582         1
         8         7        12        35     9      180.000000       13.234388         2
         8         7        12        35     9        0.000000       -0.433244         3
         8         7        12        35     9      180.000000        0.020080         4
         8         9        10        11     9        0.000000       -0.452261         1
         8         9        10        11     9      180.000000       16.950621         2
         8         9        10        11     9        0.000000        0.441470         3
         8         9        10        11     9      180.000000       -0.471575         4
         8         9        10        34     9        0.000000        0.366576         1
         8         9        10        34     9      180.000000       15.745186         2
         8         9        10        34     9        0.000000        0.282321         3
         8         9        10        34     9      180.000000       -0.371137         4
         9         8         7        12     9        0.000000        0.023105         1
         9         8         7        12     9      180.000000       15.507202         2
         9         8         7        12     9        0.000000       -0.447163         3
         9         8         7        12     9      180.000000       -0.399936         4
         9        10        11        12     9        0.000000       -0.452261         1
         9        10        11        12     9      180.000000       16.950621         2
         9        10        11        12     9        0.000000        0.441470         3
         9        10        11        12     9      180.000000       -0.471575         4
        10         9         8        33     9        0.000000       -0.100286         1
        10         9         8        33     9      180.000000       18.091370         2
        10         9         8        33     9        0.000000       -0.086777         3
        10         9         8        33     9      180.000000       -0.234457         4
        10        11        12        35     9        0.000000       -0.100286         1
        10        11        12        35     9      180.000000       18.091366         2
        10        11        12        35     9        0.000000       -0.086777         3
        10        11        12        35     9      180.000000       -0.234458         4
        12         7         6        13     9        0.000000       -0.040312         1
        12         7         6        13     9      180.000000        0.129932         2
        12         7         6        13     9        0.000000        0.049198         3
        12         7         6        13     9      180.000000        0.061231         4
        12         7         6        26     9        0.000000        0.294144         1
        12         7         6        26     9      180.000000       -0.755511         2
        12         7         6        26     9        0.000000        0.028641         3
        12         7         6        26     9      180.000000        0.163999         4
        12         7         8        33     9        0.000000        0.137582         1
        12         7         8        33     9      180.000000       13.234387         2
        12         7         8        33     9        0.000000       -0.433244         3
        12         7         8        33     9      180.000000        0.020081         4
        12        11        10        34     9        0.000000        0.366576         1
        12        11        10        34     9      180.000000       15.745186         2
        12        11        10        34     9        0.000000        0.282321         3
        12        11        10        34     9      180.000000       -0.371137         4
        13         6         5        32     9        0.000000        0.906463         1
        13         6         5        32     9      180.000000        0.658021         2
        13         6         5        32     9        0.000000        0.137912         3
        13         6         5        32     9      180.000000       -0.013919         4
        13         6        26        27     9        0.000000       -1.011830         1
        13         6        26        27     9      180.000000        1.046600         2
        13         6        26        27     9        0.000000       -0.343598         3
        13         6        26        27     9      180.000000        0.408012         4
        13        14        15        16     9        0.000000        0.136169         1
        13        14        15        16     9      180.000000       18.659238         2
        13        14        15        16     9        0.000000       -1.464608         3
        13        14        15        16     9      180.000000       -0.484474         4
        13        14        15        37     9        0.000000        0.066616         1
        13        14        15        37     9      180.000000       15.121850         2
        13        14        15        37     9        0.000000       -0.546509         3
        13        14        15        37     9      180.000000        0.065095         4
        13        25        17        16     9        0.000000       -0.058897         1
        13        25        17        16     9      180.000000       18.776862         2
        13        25        17        16     9        0.000000       -1.536653         3
        13        25        17        16     9      180.000000       -0.489768         4
        13        25        17        18     9        0.000000        0.287647         1
        13        25        17        18     9      180.000000       16.989963         2
        13        25        17        18     9        0.000000       -0.136545         3
        13        25        17        18     9      180.000000       -0.431888         4
        14        13         6        26     9        0.000000       -0.331868         1
        14        13         6        26     9      180.000000       -0.583288         2
        14        13         6        26     9        0.000000        0.168524         3
        14        13         6        26     9      180.000000        0.159598         4
        14        13        25        17     9        0.000000       -0.079266         1
        14        13        25        17     9      180.000000       19.129053         2
        14        13        25        17     9        0.000000       -1.508230         3
        14        13        25        17     9      180.000000       -0.493069         4
        14        13        25        43     9        0.000000        0.036365         1
        14        13        25        43     9      180.000000       14.639799         2
        14        13        25        43     9        0.000000       -0.722388         3
        14        13        25        43     9      180.000000        0.014886         4
        14        15        16        17     9        0.000000       -0.041740         1
        14        15        16        17     9      180.000000       18.766264         2
        14        15        16        17     9        0.000000       -1.517102         3
        14        15        16        17     9      180.000000       -0.333800         4
        14        15        16        38     9        0.000000        0.067934         1
        14        15        16        38     9      180.000000       14.604295         2
        14        15        16        38     9        0.000000       -0.730545         3
        14        15        16        38     9      180.000000        0.161582         4
        15        14        13        25     9        0.000000       -0.163961         1
        15        14        13        25     9      180.000000       19.309227         2
        15        14        13        25     9        0.000000       -1.472250         3
        15        14        13        25     9      180.000000       -0.503608         4
        15        16        17        18     9        0.000000        0.228404         1
        15        16        17        18     9      180.000000       16.151012         2
        15        16        17        18     9        0.000000       -0.177361         3
        15        16        17        18     9      180.000000       -0.242162         4
        15        16        17        25     9        0.000000       -0.197976         1
        15        16        17        25     9      180.000000       18.714466         2
        15        16        17        25     9        0.000000       -1.522548         3
        15        16        17        25     9      180.000000       -0.335433         4
        16        15        14        36     9        0.000000        0.071117         1
        16        15        14        36     9      180.000000       14.622252         2
        16        15        14        36     9        0.000000       -0.650862         3
        16        15        14        36     9      180.000000        0.076402         4
        16        17        18        19     9        0.000000       -0.008758         1
        16        17        18        19     9      180.000000        3.328483         2
        16        17        18        19     9        0.000000        0.048681         3
        16        17        18        19     9      180.000000       -0.021265         4
        16        17        18        24     9        0.000000        0.010845         1
        16        17        18        24     9      180.000000        3.331417         2
        16        17        18        24     9        0.000000        0.014007         3
        16        17        18        24     9      180.000000       -0.012287         4
        16        17        25        43     9        0.000000       -0.128823         1
        16        17        25        43     9      180.000000       14.590369         2
        16        17        25        43     9        0.000000       -0.630021         3
        16        17        25        43     9      180.000000       -0.013234         4
        17        16        15        37     9        0.000000       -0.059533         1
        17        16        15        37     9      180.000000       14.722356         2
        17        16        15        37     9        0.000000       -0.604667         3
        17        16        15        37     9      180.000000        0.109532         4
        17        18        19        20     9        0.000000        0.313800         1
        17        18        19        20     9      180.000000       16.368244         2
        17        18        19        20     9        0.000000       -0.081320         3
        17        18        19        20     9      180.000000       -0.284903         4
        17        18        19        39     9        0.000000       -0.065547         1
        17        18        19        39     9      180.000000       13.387425         2
        17        18        19        39     9        0.000000       -0.191366         3
        17        18        19        39     9      180.000000        0.181792         4
        17        18        24        22     9        0.000000        0.236779         1
        17        18        24        22     9      180.000000       16.706310         2
        17        18        24        22     9        0.000000       -0.163819         3
        17        18        24        22     9      180.000000       -0.416584         4
        17        18        24        42     9        0.000000       -0.083665         1
        17        18        24        42     9      180.000000       13.211713         2
        17        18        24        42     9        0.000000       -0.212883         3
        17        18        24        42     9      180.000000        0.209360         4
        18        17        16        38     9        0.000000       -0.104094         1
        18        17        16        38     9      180.000000       13.354281         2
        18        17        16        38     9        0.000000       -0.224137         3
        18        17        16        38     9      180.000000        0.188246         4
        18        17        25        43     9        0.000000       -0.090761         1
        18        17        25        43     9      180.000000       13.393370         2
        18        17        25        43     9        0.000000       -0.150062         3
        18        17        25        43     9      180.000000        0.156567         4
        18        19        20        21     9        0.000000       -0.027105         1
        18        19        20        21     9      180.000000       18.923034         2
        18        19        20        21     9        0.000000       -1.503937         3
        18        19        20        21     9      180.000000       -0.356268         4
        18        19        20        40     9        0.000000       -0.082647         1
        18        19        20        40     9      180.000000       14.805088         2
        18        19        20        40     9        0.000000       -0.643495         3
        18        19        20        40     9      180.000000        0.073654         4
        18        24        22        21     9        0.000000       -0.008240         1
        18        24        22        21     9      180.000000       17.745280         2
        18        24        22        21     9        0.000000       -1.184654         3
        18        24        22        21     9      180.000000       -0.352119         4
        18        24        22        23     9        0.000000        0.356484         1
        18        24        22        23     9      180.000000       19.187197         2
        18        24        22        23     9        0.000000        0.423572         3
        18        24        22        23     9      180.000000       -0.719313         4
        19        18        17        25     9        0.000000        0.029204         1
        19        18        17        25     9      180.000000        3.427147         2
        19        18        17        25     9        0.000000        0.041242         3
        19        18        17        25     9      180.000000       -0.025771         4
        19        18        24        22     9        0.000000       -0.226810         1
        19        18        24        22     9      180.000000       18.460098         2
        19        18        24        22     9        0.000000       -1.564516         3
        19        18        24        22     9      180.000000       -0.363342         4
        19        18        24        42     9        0.000000       -0.081612         1
        19        18        24        42     9      180.000000       14.063206         2
        19        18        24        42     9        0.000000       -0.651845         3
        19        18        24        42     9      180.000000        0.074764         4
        19        20        21        22     9        0.000000       -0.014672         1
        19        20        21        22     9      180.000000       18.658773         2
        19        20        21        22     9        0.000000       -1.423404         3
        19        20        21        22     9      180.000000       -0.430664         4
        19        20        21        41     9        0.000000        0.015297         1
        19        20        21        41     9      180.000000       13.921456         2
        19        20        21        41     9        0.000000       -0.702882         3
        19        20        21        41     9      180.000000        0.159191         4
        20        19        18        24     9        0.000000       -0.178260         1
        20        19        18        24     9      180.000000       18.281468         2
        20        19        18        24     9        0.000000       -1.464057         3
        20        19        18        24     9      180.000000       -0.353057         4
        20        21        22        23     9        0.000000        0.384560         1
        20        21        22        23     9      180.000000       19.125336         2
        20        21        22        23     9        0.000000        0.328219         3
        20        21        22        23     9      180.000000       -0.554486         4
        20        21        22        24     9        0.000000       -0.060651         1
        20        21        22        24     9      180.000000       17.644798         2
        20        21        22        24     9        0.000000       -1.259503         3
        20        21        22        24     9      180.000000       -0.384797         4
        21        20        19        39     9        0.000000        0.073505         1
        21        20        19        39     9      180.000000       14.891523         2
        21        20        19        39     9        0.000000       -0.707692         3
        21        20        19        39     9      180.000000        0.130542         4
        21        22        24        42     9        0.000000        0.006367         1
        21        22        24        42     9      180.000000       13.721602         2
        21        22        24        42     9        0.000000       -0.619972         3
        21        22        24        42     9      180.000000        0.133122         4
        22        21        20        40     9        0.000000        0.036286         1
        22        21        20        40     9      180.000000       14.441092         2
        22        21        20        40     9        0.000000       -0.533853         3
        22        21        20        40     9      180.000000        0.102825         4
        23        22        21        41     9        0.000000        0.203004         1
        23        22        21        41     9      180.000000       13.237179         2
        23        22        21        41     9        0.000000       -0.115367         3
        23        22        21        41     9      180.000000        0.239543         4
        23        22        24        42     9        0.000000        0.138199         1
        23        22        24        42     9      180.000000       13.815334         2
        23        22        24        42     9        0.000000       -0.095172         3
        23        22        24        42     9      180.000000        0.212289         4
        24        18        17        25     9        0.000000        0.064358         1
        24        18        17        25     9      180.000000        3.440951         2
        24        18        17        25     9        0.000000        0.003887         3
        24        18        17        25     9      180.000000       -0.017254         4
        24        18        19        39     9        0.000000       -0.117210         1
        24        18        19        39     9      180.000000       14.303309         2
        24        18        19        39     9        0.000000       -0.626107         3
        24        18        19        39     9      180.000000        0.027459         4
        24        22        21        41     9        0.000000        0.011133         1
        24        22        21        41     9      180.000000       13.432437         2
        24        22        21        41     9        0.000000       -0.533136         3
        24        22        21        41     9      180.000000        0.083311         4
        25        13         6        26     9        0.000000       -0.556794         1
        25        13         6        26     9      180.000000       -0.463311         2
        25        13         6        26     9        0.000000        0.152505         3
        25        13         6        26     9      180.000000        0.143903         4
        25        13        14        36     9        0.000000        0.045949         1
        25        13        14        36     9      180.000000       14.603653         2
        25        13        14        36     9        0.000000       -0.663545         3
        25        13        14        36     9      180.000000        0.002300         4
        25        17        16        38     9        0.000000       -0.130849         1
        25        17        16        38     9      180.000000       14.622344         2
        25        17        16        38     9        0.000000       -0.667824         3
        25        17        16        38     9      180.000000        0.044823         4
        26         2         1        28     9        0.000000       -0.066964         1
        26         2         1        28     9      180.000000       -0.079767         2
        26         2         1        28     9        0.000000       -0.305192         3
        26         2         1        28     9      180.000000        0.046821         4
        26         2         1        29     9        0.000000       -0.066964         1
        26         2         1        29     9      180.000000       -0.079767         2
        26         2         1        29     9        0.000000       -0.305192         3
        26         2         1        29     9      180.000000        0.046821         4
        26         2         1        30     9        0.000000       -0.066964         1
        26         2         1        30     9      180.000000       -0.079767         2
        26         2         1        30     9        0.000000       -0.305192         3
        26         2         1        30     9      180.000000        0.046821         4
        26         6         5        32     9        0.000000       -0.304459         1
        26         6         5        32     9      180.000000       -0.871350         2
        26         6         5        32     9        0.000000        0.082596         3
        26         6         5        32     9      180.000000        0.182720         4
        36        14        15        37     9        0.000000       -0.117658         1
        36        14        15        37     9      180.000000       11.932392         2
        36        14        15        37     9        0.000000       -0.694353         3
        36        14        15        37     9      180.000000        0.275937         4
        37        15        16        38     9        0.000000       -0.168145         1
        37        15        16        38     9      180.000000       11.942113         2
        37        15        16        38     9        0.000000       -0.731995         3
        37        15        16        38     9      180.000000        0.317910         4
        39        19        20        40     9        0.000000       -0.202412         1
        39        19        20        40     9      180.000000       12.044166         2
        39        19        20        40     9        0.000000       -0.720039         3
        39        19        20        40     9      180.000000        0.322236         4
        40        20        21        41     9        0.000000       -0.177599         1
        40        20        21        41     9      180.000000       11.407348         2
        40        20        21        41     9        0.000000       -0.617575         3
        40        20        21        41     9      180.000000        0.288706         4

[ dihedrals ] ; impropers
;       ai        aj        ak        al funct           phase               k        pn
         3         2         4         5     4      180.000000       10.701519         2
         3         4         5         2     4      180.000000       10.701519         2
         3         5         2         4     4      180.000000       10.701519         2
         8         7         9        33     4      180.000000       11.716732         2
         8         9        33         7     4      180.000000       11.716732         2
         8        33         7         9     4      180.000000       11.716732         2
        10         9        11        34     4      180.000000       22.682010         2
        10        11        34         9     4      180.000000       22.682010         2
        10        34         9        11     4      180.000000       22.682010         2
        12         7        11        35     4      180.000000       11.716732         2
        12        11        35         7     4      180.000000       11.716732         2
        12        35         7        11     4      180.000000       11.716732         2
        15        14        16        37     4      180.000000        0.196359         2
        15        16        37        14     4      180.000000        0.196359         2
        15        37        14        16     4      180.000000        0.196359         2
        26         2         6        27     4      180.000000       26.441107         2
        26         6        27         2     4      180.000000       26.441107         2
        26        27         2         6     4      180.000000       26.441107         2

[ pairs ]
;       ai        aj funct
         1         4     1
         1         5     1
         1         6     1
         1        27     1
         2         7     1
         2        13     1
         2        31     1
         2        32     1
         2        44     1
         3         7     1
         3        13     1
         3        27     1
         3        28     1
         3        29     1
         3        30     1
         4         6     1
         4        26     1
         4        32     1
         5         8     1
         5        12     1
         5        14     1
         5        25     1
         5        27     1
         5        31     1
         5        44     1
         6         9     1
         6        11     1
         6        15     1
         6        17     1
         6        33     1
         6        35     1
         6        36     1
         6        43     1
         7        10     1
         7        14     1
         7        25     1
         7        27     1
         7        32     1
         8        11     1
         8        13     1
         8        26     1
         8        34     1
         8        35     1
         9        12     1
        10        33     1
        10        35     1
        12        13     1
        12        26     1
        12        33     1
        12        34     1
        13        16     1
        13        18     1
        13        27     1
        13        32     1
        13        37     1
        14        17     1
        14        26     1
        14        38     1
        14        43     1
        15        18     1
        15        25     1
        16        19     1
        16        24     1
        16        36     1
        16        43     1
        17        20     1
        17        22     1
        17        37     1
        17        39     1
        17        42     1
        18        21     1
        18        23     1
        18        38     1
        18        40     1
        18        43     1
        19        22     1
        19        25     1
        19        41     1
        19        42     1
        20        23     1
        20        24     1
        21        39     1
        21        42     1
        22        40     1
        23        41     1
        23        42     1
        24        25     1
        24        39     1
        24        41     1
        25        26     1
        25        36     1
        25        38     1
        26        28     1
        26        29     1
        26        30     1
        26        32     1
        36        37     1
        37        38     1
        39        40     1
        40        41     1
