; ITP file created by ByteFF-ML, 2026-02-21 08:14:41.640763

[ atomtypes ]
;name           bonded.type        at.num        mass        charge   ptype           sigma         epsilon
 c0bf                                   6      0.0000       0.00000       A     3.39909e-01     4.52588e-01
 n1bf                                   7      0.0000       0.00000       A     3.18287e-01     7.03250e-01
 c2bf                                   6      0.0000       0.00000       A     3.31264e-01     4.10570e-01
 n3bf                                   7      0.0000       0.00000       A     3.36721e-01     4.77448e-01
 n4bf                                   7      0.0000       0.00000       A     3.26713e-01     6.48769e-01
 c5bf                                   6      0.0000       0.00000       A     3.39536e-01     4.48869e-01
 c6bf                                   6      0.0000       0.00000       A     3.31648e-01     4.15198e-01
 c7bf                                   6      0.0000       0.00000       A     3.31488e-01     4.13867e-01
 c8bf                                   6      0.0000       0.00000       A     3.31499e-01     4.13444e-01
 c9bf                                   6      0.0000       0.00000       A     3.31504e-01     4.12557e-01
 c10bf                                  6      0.0000       0.00000       A     3.31411e-01     4.13074e-01
 c11bf                                  6      0.0000       0.00000       A     3.31188e-01     4.11569e-01
 c12bf                                  6      0.0000       0.00000       A     3.31492e-01     4.13371e-01
 n13bf                                  7      0.0000       0.00000       A     3.38295e-01     3.92598e-01
 c14bf                                  6      0.0000       0.00000       A     3.31445e-01     4.13543e-01
 c15bf                                  6      0.0000       0.00000       A     3.31522e-01     4.14174e-01
 c16bf                                  6      0.0000       0.00000       A     3.48301e-01     6.69010e-01
 n17bf                                  7      0.0000       0.00000       A     3.27394e-01     4.58168e-01
 c18bf                                  6      0.0000       0.00000       A     3.31385e-01     4.12996e-01
 c19bf                                  6      0.0000       0.00000       A     3.31574e-01     4.14790e-01
 c20bf                                  6      0.0000       0.00000       A     3.39513e-01     4.48947e-01
 c21bf                                  6      0.0000       0.00000       A     3.39757e-01     4.48772e-01
 c22bf                                  6      0.0000       0.00000       A     3.39757e-01     4.48772e-01
 c23bf                                  6      0.0000       0.00000       A     3.31408e-01     4.15537e-01
 o24bf                                  8      0.0000       0.00000       A     3.04503e-01     6.16156e-01
 h25bf                                  1      0.0000       0.00000       A     2.42205e-01     8.61909e-02
 h26bf                                  1      0.0000       0.00000       A     2.42205e-01     8.61909e-02
 h27bf                                  1      0.0000       0.00000       A     2.42205e-01     8.61909e-02
 h28bf                                  1      0.0000       0.00000       A     1.10384e-01     3.90095e-02
 h29bf                                  1      0.0000       0.00000       A     1.10320e-01     4.03279e-02
 h30bf                                  1      0.0000       0.00000       A     2.62572e-01     6.77436e-02
 h31bf                                  1      0.0000       0.00000       A     2.62513e-01     6.74259e-02
 h32bf                                  1      0.0000       0.00000       A     2.62472e-01     6.74738e-02
 h33bf                                  1      0.0000       0.00000       A     2.53647e-01     6.70142e-02
 h34bf                                  1      0.0000       0.00000       A     2.53539e-01     6.73414e-02
 h35bf                                  1      0.0000       0.00000       A     2.62259e-01     6.76302e-02
 h36bf                                  1      0.0000       0.00000       A     2.62565e-01     6.76829e-02
 h37bf                                  1      0.0000       0.00000       A     2.59520e-01     8.50290e-02
 h38bf                                  1      0.0000       0.00000       A     2.60287e-01     8.57424e-02
 h39bf                                  1      0.0000       0.00000       A     2.60287e-01     8.57424e-02
 h40bf                                  1      0.0000       0.00000       A     2.60287e-01     8.57424e-02
 h41bf                                  1      0.0000       0.00000       A     2.60287e-01     8.57424e-02
 h42bf                                  1      0.0000       0.00000       A     1.10384e-01     3.90095e-02

[ moleculetype ]
;name             nrexcl
 CAT-17f               3

[ atoms ]
;       nr            type      resi   res      atom      cgnr      charge          mass ; qtot
         1            c0bf         1   UNL        c0         1     0.07261       12.0110 ; qtot    0.073
         2            n1bf         1   UNL        n1         2    -0.59326       14.0070 ; qtot   -0.521
         3            c2bf         1   UNL        c2         3     0.92602       12.0110 ; qtot    0.405
         4            n3bf         1   UNL        n3         4    -0.58697       14.0070 ; qtot   -0.182
         5            n4bf         1   UNL        n4         5    -0.61445       14.0070 ; qtot   -0.796
         6            c5bf         1   UNL        c5         6     0.12041       12.0110 ; qtot   -0.676
         7            c6bf         1   UNL        c6         7    -0.12404       12.0110 ; qtot   -0.800
         8            c7bf         1   UNL        c7         8    -0.07458       12.0110 ; qtot   -0.874
         9            c8bf         1   UNL        c8         9    -0.09643       12.0110 ; qtot   -0.971
        10            c9bf         1   UNL        c9        10    -0.09342       12.0110 ; qtot   -1.064
        11           c10bf         1   UNL       c10        11    -0.03118       12.0110 ; qtot   -1.095
        12           c11bf         1   UNL       c11        12    -0.08104       12.0110 ; qtot   -1.176
        13           c12bf         1   UNL       c12        13     0.36014       12.0110 ; qtot   -0.816
        14           n13bf         1   UNL       n13        14    -0.65497       14.0070 ; qtot   -1.471
        15           c14bf         1   UNL       c14        15     0.37290       12.0110 ; qtot   -1.098
        16           c15bf         1   UNL       c15        16    -0.06275       12.0110 ; qtot   -1.161
        17           c16bf         1   UNL       c16        17     0.31485       12.0110 ; qtot   -0.846
        18           n17bf         1   UNL       n17        18    -0.43294       14.0070 ; qtot   -1.279
        19           c18bf         1   UNL       c18        19    -0.03658       12.0110 ; qtot   -1.316
        20           c19bf         1   UNL       c19        20    -0.05861       12.0110 ; qtot   -1.374
        21           c20bf         1   UNL       c20        21    -0.16654       12.0110 ; qtot   -1.541
        22           c21bf         1   UNL       c21        22    -0.10388       12.0110 ; qtot   -1.645
        23           c22bf         1   UNL       c22        23    -0.10388       12.0110 ; qtot   -1.749
        24           c23bf         1   UNL       c23        24     0.55423       12.0110 ; qtot   -1.194
        25           o24bf         1   UNL       o24        25    -0.39240       15.9990 ; qtot   -1.587
        26           h25bf         1   UNL       h25        26     0.08926        1.0080 ; qtot   -1.498
        27           h26bf         1   UNL       h26        27     0.08926        1.0080 ; qtot   -1.408
        28           h27bf         1   UNL       h27        28     0.08926        1.0080 ; qtot   -1.319
        29           h28bf         1   UNL       h28        29     0.38441        1.0080 ; qtot   -0.935
        30           h29bf         1   UNL       h29        30     0.41057        1.0080 ; qtot   -0.524
        31           h30bf         1   UNL       h30        31     0.12888        1.0080 ; qtot   -0.395
        32           h31bf         1   UNL       h31        32     0.11984        1.0080 ; qtot   -0.275
        33           h32bf         1   UNL       h32        33     0.11718        1.0080 ; qtot   -0.158
        34           h33bf         1   UNL       h33        34     0.03044        1.0080 ; qtot   -0.128
        35           h34bf         1   UNL       h34        35     0.04114        1.0080 ; qtot   -0.087
        36           h35bf         1   UNL       h35        36     0.14018        1.0080 ; qtot    0.054
        37           h36bf         1   UNL       h36        37     0.13080        1.0080 ; qtot    0.184
        38           h37bf         1   UNL       h37        38     0.10393        1.0080 ; qtot    0.288
        39           h38bf         1   UNL       h38        39     0.08180        1.0080 ; qtot    0.370
        40           h39bf         1   UNL       h39        40     0.08180        1.0080 ; qtot    0.452
        41           h40bf         1   UNL       h40        41     0.08180        1.0080 ; qtot    0.534
        42           h41bf         1   UNL       h41        42     0.08180        1.0080 ; qtot    0.616
        43           h42bf         1   UNL       h42        43     0.38441        1.0080 ; qtot    1.000

[ bonds ]
;       ai        aj funct               r               k
         1         2     1        0.146737   195108.827344
         1        26     1        0.109021   312351.867139
         1        27     1        0.109021   312351.867139
         1        28     1        0.109021   312351.867139
         2         3     1        0.135493   307944.238672
         2        24     1        0.142426   148868.502490
         3         4     1        0.133058   418634.532812
         3         5     1        0.133302   386902.376074
         4        29     1        0.101328   425154.871875
         4        43     1        0.101328   425154.871875
         5         6     1        0.148913   139630.299951
         5        30     1        0.101337   424655.417090
         6         7     1        0.152262   166830.385889
         6        21     1        0.152416   168644.784741
         6        24     1        0.154577   128147.845166
         7         8     1        0.140053   293210.348047
         7        20     1        0.139868   296592.227441
         8         9     1        0.139655   314826.183203
         8        31     1        0.108541   320854.320020
         9        10     1        0.139603   315779.381348
         9        32     1        0.108618   319848.540967
        10        11     1        0.140522   286316.554297
        10        33     1        0.108594   318502.760840
        11        12     1        0.148017   216453.841455
        11        20     1        0.140364   288133.136572
        12        13     1        0.140956   267973.963672
        12        19     1        0.140064   292791.360693
        13        14     1        0.133745   325324.361182
        13        34     1        0.108774   316681.224365
        14        15     1        0.133484   325832.217676
        15        16     1        0.140751   274762.544531
        15        35     1        0.108683   322196.422803
        16        17     1        0.143509   274008.459229
        16        19     1        0.140162   302275.715430
        17        18     1        0.116506  1108252.730859
        19        36     1        0.108498   324345.549316
        20        37     1        0.108523   319695.037402
        21        22     1        0.151266   194349.289868
        21        23     1        0.151266   194349.289868
        21        38     1        0.108537   319742.587500
        22        23     1        0.151225   199579.966602
        22        39     1        0.108483   323654.872656
        22        40     1        0.108483   323654.872656
        23        41     1        0.108483   323654.872656
        23        42     1        0.108483   323654.872656
        24        25     1        0.120460   715141.721680

[ angles ]
;       ai        aj        ak funct           theta             cth
         1         2         3     1      126.596352      465.851780
         1         2        24     1      123.154587      533.875393
         2         1        26     1      109.233238      484.690090
         2         1        27     1      109.233238      484.690090
         2         1        28     1      109.233238      484.690090
         2         3         4     1      123.849709      628.052901
         2         3         5     1      111.327248      587.108806
         2        24         6     1      106.404617      167.360000
         2        24        25     1      124.414818      651.466280
         3         2        24     1      109.854813      830.456710
         3         4        29     1      121.317360      450.542985
         3         4        43     1      121.317360      450.542985
         3         5         6     1      111.918991      621.631084
         3         5        30     1      123.479996      428.649734
         4         3         5     1      125.425247      615.144594
         5         6         7     1      110.812096      603.925695
         5         6        21     1      110.691429      585.051728
         5         6        24     1      100.735207      334.101395
         6         5        30     1      121.067909      366.714263
         6         7         8     1      120.241966      490.003054
         6         7        20     1      120.049706      446.194239
         6        21        22     1      121.414719      410.920436
         6        21        23     1      121.414719      410.920404
         6        21        38     1      112.401169      424.131102
         6        24        25     1      127.712059      357.779307
         7         6        21     1      114.064102      533.010738
         7         6        24     1      111.595871      602.042333
         7         8         9     1      119.710999      677.588381
         7         8        31     1      120.439598      409.425302
         7        20        11     1      121.083534      661.388532
         7        20        37     1      119.798691      407.978593
         8         7        20     1      119.589684      687.179991
         8         9        10     1      120.354919      724.479813
         8         9        32     1      119.842361      433.129134
         9         8        31     1      119.735275      425.147000
         9        10        11     1      120.309425      699.474003
         9        10        33     1      119.750404      430.330108
        10         9        32     1      119.794922      436.724312
        10        11        12     1      120.699974      509.748730
        10        11        20     1      118.509789      663.111713
        11        10        33     1      119.891891      429.149782
        11        12        13     1      121.432938      544.369134
        11        12        19     1      121.754738      451.654679
        11        20        37     1      119.134628      420.800073
        12        11        20     1      120.720779      423.919272
        12        13        14     1      124.514023      749.353979
        12        13        34     1      119.837708      404.851382
        12        19        16     1      119.364456      727.825876
        12        19        36     1      120.972916      413.562058
        13        12        19     1      116.691185      690.541824
        13        14        15     1      117.946999      703.336363
        14        13        34     1      115.872238      331.613762
        14        15        16     1      122.680763      671.219490
        14        15        35     1      117.175064      338.374967
        15        16        17     1      120.212158      513.266595
        15        16        19     1      118.733353      753.398993
        16        15        35     1      120.253525      399.871103
        16        17        18     1      179.592621      167.360000
        16        19        36     1      119.911133      419.069168
        17        16        19     1      120.832275      455.765707
        21         6        24     1      110.442825      625.809785
        21        22        23     1       59.965569      167.360000
        21        22        39     1      117.870682      377.010219
        21        22        40     1      117.870682      377.010219
        21        23        22     1       59.965576      167.360000
        21        23        41     1      117.870667      377.010219
        21        23        42     1      117.870667      377.010283
        22        21        23     1       60.013447      167.360000
        22        21        38     1      116.334984      367.698112
        22        23        41     1      118.112976      373.159862
        22        23        42     1      118.112976      373.159862
        23        21        38     1      116.334976      367.698112
        23        22        39     1      118.112976      373.159798
        23        22        40     1      118.112976      373.159798
        26         1        27     1      109.817101      349.345230
        26         1        28     1      109.817101      349.345230
        27         1        28     1      109.817101      349.345230
        29         4        43     1      117.449059      314.118256
        39        22        40     1      114.508240      310.792335
        41        23        42     1      114.508240      310.792335

[ dihedrals ] ; propers for gromacs 4.5 or higher, use funct 9
;       ai        aj        ak        al funct           phase               k        pn
         1         2         3         4     9        0.000000        1.681251         1
         1         2         3         4     9      180.000000        7.565632         2
         1         2         3         4     9        0.000000       -0.084196         3
         1         2         3         4     9      180.000000       -0.117755         4
         1         2         3         5     9        0.000000       -2.595472         1
         1         2         3         5     9      180.000000        5.687022         2
         1         2         3         5     9        0.000000       -0.270197         3
         1         2         3         5     9      180.000000        0.071015         4
         1         2        24         6     9        0.000000       -0.927348         1
         1         2        24         6     9      180.000000        5.632267         2
         1         2        24         6     9        0.000000        0.194516         3
         1         2        24         6     9      180.000000       -0.146003         4
         1         2        24        25     9        0.000000       -0.372579         1
         1         2        24        25     9      180.000000        9.241160         2
         1         2        24        25     9        0.000000       -0.366743         3
         1         2        24        25     9      180.000000        0.272898         4
         2         3         4        29     9        0.000000       -0.692757         1
         2         3         4        29     9      180.000000        6.266683         2
         2         3         4        29     9        0.000000        0.276010         3
         2         3         4        29     9      180.000000       -0.640727         4
         2         3         4        43     9        0.000000       -0.692758         1
         2         3         4        43     9      180.000000        6.266682         2
         2         3         4        43     9        0.000000        0.276009         3
         2         3         4        43     9      180.000000       -0.640727         4
         2         3         5         6     9        0.000000       -1.503540         1
         2         3         5         6     9      180.000000       22.318135         2
         2         3         5         6     9        0.000000       -1.492200         3
         2         3         5         6     9      180.000000       -2.587925         4
         2         3         5        30     9        0.000000       -0.423671         1
         2         3         5        30     9      180.000000        8.960263         2
         2         3         5        30     9        0.000000        0.006719         3
         2         3         5        30     9      180.000000       -0.794589         4
         2        24         6         5     9        0.000000        0.846264         1
         2        24         6         5     9      180.000000        7.674254         2
         2        24         6         5     9        0.000000       -0.129959         3
         2        24         6         5     9      180.000000       -0.374181         4
         2        24         6         7     9        0.000000        0.580672         1
         2        24         6         7     9      180.000000        0.779047         2
         2        24         6         7     9        0.000000        0.419813         3
         2        24         6         7     9      180.000000        0.785128         4
         2        24         6        21     9        0.000000       -1.663485         1
         2        24         6        21     9      180.000000        1.743965         2
         2        24         6        21     9        0.000000        0.204177         3
         2        24         6        21     9      180.000000        0.678616         4
         3         2         1        26     9        0.000000        0.017242         1
         3         2         1        26     9      180.000000        0.009277         2
         3         2         1        26     9        0.000000        0.186287         3
         3         2         1        26     9      180.000000       -0.015663         4
         3         2         1        27     9        0.000000        0.017242         1
         3         2         1        27     9      180.000000        0.009277         2
         3         2         1        27     9        0.000000        0.186287         3
         3         2         1        27     9      180.000000       -0.015663         4
         3         2         1        28     9        0.000000        0.017242         1
         3         2         1        28     9      180.000000        0.009277         2
         3         2         1        28     9        0.000000        0.186287         3
         3         2         1        28     9      180.000000       -0.015663         4
         3         2        24         6     9        0.000000       -3.199270         1
         3         2        24         6     9      180.000000       11.134570         2
         3         2        24         6     9        0.000000       -1.424547         3
         3         2        24         6     9      180.000000       -0.354715         4
         3         2        24        25     9        0.000000        1.863270         1
         3         2        24        25     9      180.000000       16.900331         2
         3         2        24        25     9        0.000000       -0.487083         3
         3         2        24        25     9      180.000000       -0.863534         4
         3         5         6         7     9        0.000000        0.012918         1
         3         5         6         7     9      180.000000        0.605239         2
         3         5         6         7     9        0.000000        0.247695         3
         3         5         6         7     9      180.000000        0.225342         4
         3         5         6        21     9        0.000000       -3.192218         1
         3         5         6        21     9      180.000000        1.786951         2
         3         5         6        21     9        0.000000        0.247241         3
         3         5         6        21     9      180.000000        0.162776         4
         3         5         6        24     9        0.000000       -2.410528         1
         3         5         6        24     9      180.000000        7.090548         2
         3         5         6        24     9        0.000000       -0.379500         3
         3         5         6        24     9      180.000000       -1.884004         4
         4         3         2        24     9        0.000000        1.215505         1
         4         3         2        24     9      180.000000       13.015313         2
         4         3         2        24     9        0.000000       -0.233095         3
         4         3         2        24     9      180.000000       -0.792368         4
         4         3         5         6     9        0.000000        2.225656         1
         4         3         5         6     9      180.000000       17.710702         2
         4         3         5         6     9        0.000000        0.846330         3
         4         3         5         6     9      180.000000       -1.899073         4
         4         3         5        30     9        0.000000       -0.804130         1
         4         3         5        30     9      180.000000        8.071696         2
         4         3         5        30     9        0.000000        0.396356         3
         4         3         5        30     9      180.000000       -0.383884         4
         5         3         2        24     9        0.000000       -1.530473         1
         5         3         2        24     9      180.000000       14.535260         2
         5         3         2        24     9        0.000000       -2.812513         3
         5         3         2        24     9      180.000000       -1.257193         4
         5         3         4        29     9        0.000000       -1.912809         1
         5         3         4        29     9      180.000000        6.401111         2
         5         3         4        29     9        0.000000       -0.119590         3
         5         3         4        29     9      180.000000       -0.499018         4
         5         3         4        43     9        0.000000       -1.912809         1
         5         3         4        43     9      180.000000        6.401112         2
         5         3         4        43     9        0.000000       -0.119590         3
         5         3         4        43     9      180.000000       -0.499018         4
         5         6         7         8     9        0.000000       -0.231461         1
         5         6         7         8     9      180.000000        1.367796         2
         5         6         7         8     9        0.000000        0.169382         3
         5         6         7         8     9      180.000000        0.152540         4
         5         6         7        20     9        0.000000       -0.088742         1
         5         6         7        20     9      180.000000        1.421686         2
         5         6         7        20     9        0.000000        0.103807         3
         5         6         7        20     9      180.000000        0.135944         4
         5         6        21        22     9        0.000000        0.135020         1
         5         6        21        22     9      180.000000       -0.526363         2
         5         6        21        22     9        0.000000        1.071462         3
         5         6        21        22     9      180.000000        0.128480         4
         5         6        21        23     9        0.000000        0.135020         1
         5         6        21        23     9      180.000000       -0.526364         2
         5         6        21        23     9        0.000000        1.071462         3
         5         6        21        23     9      180.000000        0.128479         4
         5         6        21        38     9        0.000000       -0.825185         1
         5         6        21        38     9      180.000000       -0.748652         2
         5         6        21        38     9        0.000000        1.187461         3
         5         6        21        38     9      180.000000       -0.113455         4
         5         6        24        25     9        0.000000        6.954345         1
         5         6        24        25     9      180.000000        5.214521         2
         5         6        24        25     9        0.000000        0.085529         3
         5         6        24        25     9      180.000000        0.381754         4
         6         7         8         9     9        0.000000        0.175751         1
         6         7         8         9     9      180.000000       14.708349         2
         6         7         8         9     9        0.000000       -0.202608         3
         6         7         8         9     9      180.000000       -0.099356         4
         6         7         8        31     9        0.000000       -0.024047         1
         6         7         8        31     9      180.000000       12.655440         2
         6         7         8        31     9        0.000000       -0.307111         3
         6         7         8        31     9      180.000000        0.222241         4
         6         7        20        11     9        0.000000        0.171366         1
         6         7        20        11     9      180.000000       14.560184         2
         6         7        20        11     9        0.000000       -0.147041         3
         6         7        20        11     9      180.000000       -0.177950         4
         6         7        20        37     9        0.000000       -0.029779         1
         6         7        20        37     9      180.000000       12.773272         2
         6         7        20        37     9        0.000000       -0.300560         3
         6         7        20        37     9      180.000000        0.221157         4
         6        21        22        23     9        0.000000       36.756380         1
         6        21        22        23     9      180.000000       -1.256455         2
         6        21        22        23     9        0.000000        1.578942         3
         6        21        22        23     9      180.000000       11.424949         4
         6        21        22        39     9        0.000000        0.702705         1
         6        21        22        39     9      180.000000       -1.580479         2
         6        21        22        39     9        0.000000        0.019185         3
         6        21        22        39     9      180.000000        1.344229         4
         6        21        22        40     9        0.000000        0.702705         1
         6        21        22        40     9      180.000000       -1.580479         2
         6        21        22        40     9        0.000000        0.019185         3
         6        21        22        40     9      180.000000        1.344229         4
         6        21        23        22     9        0.000000       36.756376         1
         6        21        23        22     9      180.000000       -1.256457         2
         6        21        23        22     9        0.000000        1.578942         3
         6        21        23        22     9      180.000000       11.424950         4
         6        21        23        41     9        0.000000        0.702704         1
         6        21        23        41     9      180.000000       -1.580479         2
         6        21        23        41     9        0.000000        0.019185         3
         6        21        23        41     9      180.000000        1.344229         4
         6        21        23        42     9        0.000000        0.702704         1
         6        21        23        42     9      180.000000       -1.580479         2
         6        21        23        42     9        0.000000        0.019185         3
         6        21        23        42     9      180.000000        1.344229         4
         7         6         5        30     9        0.000000        1.059554         1
         7         6         5        30     9      180.000000        0.527404         2
         7         6         5        30     9        0.000000        0.152015         3
         7         6         5        30     9      180.000000       -0.043896         4
         7         6        21        22     9        0.000000       -0.047011         1
         7         6        21        22     9      180.000000        0.459078         2
         7         6        21        22     9        0.000000        1.284585         3
         7         6        21        22     9      180.000000        0.092191         4
         7         6        21        23     9        0.000000       -0.047012         1
         7         6        21        23     9      180.000000        0.459078         2
         7         6        21        23     9        0.000000        1.284585         3
         7         6        21        23     9      180.000000        0.092190         4
         7         6        21        38     9        0.000000        0.063877         1
         7         6        21        38     9      180.000000        0.865171         2
         7         6        21        38     9        0.000000        1.585218         3
         7         6        21        38     9      180.000000        0.061512         4
         7         6        24        25     9        0.000000       -0.842678         1
         7         6        24        25     9      180.000000        1.204222         2
         7         6        24        25     9        0.000000       -0.336938         3
         7         6        24        25     9      180.000000        0.433070         4
         7         8         9        10     9        0.000000        0.109051         1
         7         8         9        10     9      180.000000       18.616525         2
         7         8         9        10     9        0.000000       -1.515084         3
         7         8         9        10     9      180.000000       -0.456085         4
         7         8         9        32     9        0.000000        0.071512         1
         7         8         9        32     9      180.000000       15.083015         2
         7         8         9        32     9        0.000000       -0.584435         3
         7         8         9        32     9      180.000000        0.085537         4
         7        20        11        10     9        0.000000       -0.081418         1
         7        20        11        10     9      180.000000       18.708829         2
         7        20        11        10     9        0.000000       -1.603528         3
         7        20        11        10     9      180.000000       -0.491329         4
         7        20        11        12     9        0.000000        0.321803         1
         7        20        11        12     9      180.000000       16.894143         2
         7        20        11        12     9        0.000000       -0.169446         3
         7        20        11        12     9      180.000000       -0.436626         4
         8         7         6        21     9        0.000000       -0.241508         1
         8         7         6        21     9      180.000000        1.377441         2
         8         7         6        21     9        0.000000        0.140578         3
         8         7         6        21     9      180.000000        0.090995         4
         8         7         6        24     9        0.000000       -0.307022         1
         8         7         6        24     9      180.000000       -0.481876         2
         8         7         6        24     9        0.000000        0.144676         3
         8         7         6        24     9      180.000000        0.132200         4
         8         7        20        11     9        0.000000       -0.072479         1
         8         7        20        11     9      180.000000       19.051653         2
         8         7        20        11     9        0.000000       -1.473354         3
         8         7        20        11     9      180.000000       -0.458190         4
         8         7        20        37     9        0.000000        0.035718         1
         8         7        20        37     9      180.000000       14.339579         2
         8         7        20        37     9        0.000000       -0.689340         3
         8         7        20        37     9      180.000000        0.075035         4
         8         9        10        11     9        0.000000       -0.018670         1
         8         9        10        11     9      180.000000       18.797110         2
         8         9        10        11     9        0.000000       -1.505307         3
         8         9        10        11     9      180.000000       -0.337191         4
         8         9        10        33     9        0.000000        0.077440         1
         8         9        10        33     9      180.000000       14.585813         2
         8         9        10        33     9        0.000000       -0.742600         3
         8         9        10        33     9      180.000000        0.171579         4
         9         8         7        20     9        0.000000       -0.132125         1
         9         8         7        20     9      180.000000       19.083593         2
         9         8         7        20     9        0.000000       -1.437675         3
         9         8         7        20     9      180.000000       -0.459673         4
         9        10        11        12     9        0.000000        0.228711         1
         9        10        11        12     9      180.000000       16.231331         2
         9        10        11        12     9        0.000000       -0.256420         3
         9        10        11        12     9      180.000000       -0.262353         4
         9        10        11        20     9        0.000000       -0.219446         1
         9        10        11        20     9      180.000000       18.778550         2
         9        10        11        20     9        0.000000       -1.535894         3
         9        10        11        20     9      180.000000       -0.351383         4
        10         9         8        31     9        0.000000        0.052747         1
        10         9         8        31     9      180.000000       14.634509         2
        10         9         8        31     9        0.000000       -0.634940         3
        10         9         8        31     9      180.000000        0.081291         4
        10        11        12        13     9        0.000000       -0.023985         1
        10        11        12        13     9      180.000000        2.681982         2
        10        11        12        13     9        0.000000        0.100413         3
        10        11        12        13     9      180.000000       -0.204741         4
        10        11        12        19     9        0.000000        0.057146         1
        10        11        12        19     9      180.000000        3.058678         2
        10        11        12        19     9        0.000000        0.084171         3
        10        11        12        19     9      180.000000       -0.155212         4
        10        11        20        37     9        0.000000       -0.141693         1
        10        11        20        37     9      180.000000       14.801418         2
        10        11        20        37     9        0.000000       -0.623601         3
        10        11        20        37     9      180.000000       -0.032299         4
        11        10         9        32     9        0.000000       -0.052093         1
        11        10         9        32     9      180.000000       14.842315         2
        11        10         9        32     9        0.000000       -0.609189         3
        11        10         9        32     9      180.000000        0.090473         4
        11        12        13        14     9        0.000000        0.382645         1
        11        12        13        14     9      180.000000       15.061633         2
        11        12        13        14     9        0.000000        0.103161         3
        11        12        13        14     9      180.000000       -0.483422         4
        11        12        13        34     9        0.000000        0.117802         1
        11        12        13        34     9      180.000000       12.874016         2
        11        12        13        34     9        0.000000       -0.146723         3
        11        12        13        34     9      180.000000        0.151832         4
        11        12        19        16     9        0.000000        0.221561         1
        11        12        19        16     9      180.000000       16.523919         2
        11        12        19        16     9        0.000000        0.022197         3
        11        12        19        16     9      180.000000       -0.373430         4
        11        12        19        36     9        0.000000       -0.087715         1
        11        12        19        36     9      180.000000       13.088512         2
        11        12        19        36     9        0.000000       -0.164992         3
        11        12        19        36     9      180.000000        0.203883         4
        12        11        10        33     9        0.000000       -0.158706         1
        12        11        10        33     9      180.000000       13.429498         2
        12        11        10        33     9        0.000000       -0.307666         3
        12        11        10        33     9      180.000000        0.151486         4
        12        11        20        37     9        0.000000       -0.161652         1
        12        11        20        37     9      180.000000       13.375709         2
        12        11        20        37     9        0.000000       -0.194756         3
        12        11        20        37     9      180.000000        0.154577         4
        12        13        14        15     9        0.000000        0.227989         1
        12        13        14        15     9      180.000000       21.772409         2
        12        13        14        15     9        0.000000       -0.619354         3
        12        13        14        15     9      180.000000       -0.109783         4
        12        19        16        15     9        0.000000       -0.041095         1
        12        19        16        15     9      180.000000       17.854695         2
        12        19        16        15     9        0.000000       -1.722200         3
        12        19        16        15     9      180.000000       -0.447259         4
        12        19        16        17     9        0.000000        0.086990         1
        12        19        16        17     9      180.000000       16.913942         2
        12        19        16        17     9        0.000000       -0.005469         3
        12        19        16        17     9      180.000000       -0.447363         4
        13        12        11        20     9        0.000000        0.015225         1
        13        12        11        20     9      180.000000        2.843409         2
        13        12        11        20     9        0.000000        0.129935         3
        13        12        11        20     9      180.000000       -0.217737         4
        13        12        19        16     9        0.000000       -0.302433         1
        13        12        19        16     9      180.000000       17.941775         2
        13        12        19        16     9        0.000000       -1.533007         3
        13        12        19        16     9      180.000000       -0.434450         4
        13        12        19        36     9        0.000000       -0.115913         1
        13        12        19        36     9      180.000000       13.199328         2
        13        12        19        36     9        0.000000       -0.671060         3
        13        12        19        36     9      180.000000        0.085505         4
        13        14        15        16     9        0.000000       -0.022818         1
        13        14        15        16     9      180.000000       22.557723         2
        13        14        15        16     9        0.000000       -0.398362         3
        13        14        15        16     9      180.000000       -0.270743         4
        13        14        15        35     9        0.000000        0.729045         1
        13        14        15        35     9      180.000000       20.219868         2
        13        14        15        35     9        0.000000        0.309426         3
        13        14        15        35     9      180.000000       -0.486932         4
        14        13        12        19     9        0.000000       -0.029136         1
        14        13        12        19     9      180.000000       15.908603         2
        14        13        12        19     9        0.000000       -0.515523         3
        14        13        12        19     9      180.000000       -0.290427         4
        14        15        16        17     9        0.000000       -0.248393         1
        14        15        16        17     9      180.000000       15.735937         2
        14        15        16        17     9        0.000000       -0.028131         3
        14        15        16        17     9      180.000000       -0.630912         4
        14        15        16        19     9        0.000000       -0.107613         1
        14        15        16        19     9      180.000000       15.934531         2
        14        15        16        19     9        0.000000       -0.769278         3
        14        15        16        19     9      180.000000       -0.305126         4
        15        14        13        34     9        0.000000        1.169306         1
        15        14        13        34     9      180.000000       20.381640         2
        15        14        13        34     9        0.000000        0.127008         3
        15        14        13        34     9      180.000000       -0.217882         4
        15        16        17        18     9        0.000000        0.000000         1
        15        16        17        18     9      180.000000        0.000000         2
        15        16        17        18     9        0.000000        0.000000         3
        15        16        17        18     9      180.000000        0.000000         4
        15        16        19        36     9        0.000000        0.112217         1
        15        16        19        36     9      180.000000       13.687306         2
        15        16        19        36     9        0.000000       -0.683850         3
        15        16        19        36     9      180.000000        0.115507         4
        17        16        15        35     9        0.000000        0.132147         1
        17        16        15        35     9      180.000000       12.783352         2
        17        16        15        35     9        0.000000       -0.124936         3
        17        16        15        35     9      180.000000       -0.005461         4
        17        16        19        36     9        0.000000        0.062063         1
        17        16        19        36     9      180.000000       12.953871         2
        17        16        19        36     9        0.000000       -0.244049         3
        17        16        19        36     9      180.000000        0.096790         4
        18        17        16        19     9        0.000000        0.000000         1
        18        17        16        19     9      180.000000        0.000000         2
        18        17        16        19     9        0.000000        0.000000         3
        18        17        16        19     9      180.000000        0.000000         4
        19        12        11        20     9        0.000000        0.036846         1
        19        12        11        20     9      180.000000        3.176823         2
        19        12        11        20     9        0.000000        0.080208         3
        19        12        11        20     9      180.000000       -0.158330         4
        19        12        13        34     9        0.000000       -0.172462         1
        19        12        13        34     9      180.000000       12.993838         2
        19        12        13        34     9        0.000000       -0.342543         3
        19        12        13        34     9      180.000000        0.046901         4
        19        16        15        35     9        0.000000        0.031390         1
        19        16        15        35     9      180.000000       13.015307         2
        19        16        15        35     9        0.000000       -0.414861         3
        19        16        15        35     9      180.000000        0.016178         4
        20         7         6        21     9        0.000000       -0.455351         1
        20         7         6        21     9      180.000000        1.476769         2
        20         7         6        21     9        0.000000        0.087463         3
        20         7         6        21     9      180.000000        0.082650         4
        20         7         6        24     9        0.000000       -0.645005         1
        20         7         6        24     9      180.000000       -0.374448         2
        20         7         6        24     9        0.000000        0.117428         3
        20         7         6        24     9      180.000000        0.136619         4
        20         7         8        31     9        0.000000        0.034407         1
        20         7         8        31     9      180.000000       14.253554         2
        20         7         8        31     9        0.000000       -0.628434         3
        20         7         8        31     9      180.000000        0.068790         4
        20        11        10        33     9        0.000000       -0.128742         1
        20        11        10        33     9      180.000000       14.769124         2
        20        11        10        33     9        0.000000       -0.709169         3
        20        11        10        33     9      180.000000        0.037977         4
        21         6         5        30     9        0.000000        1.093009         1
        21         6         5        30     9      180.000000        0.895513         2
        21         6         5        30     9        0.000000        0.083132         3
        21         6         5        30     9      180.000000        0.034288         4
        21         6        24        25     9        0.000000       -0.690912         1
        21         6        24        25     9      180.000000        1.656976         2
        21         6        24        25     9        0.000000       -0.529450         3
        21         6        24        25     9      180.000000        0.437851         4
        21        22        23        41     9        0.000000       27.788822         1
        21        22        23        41     9      180.000000        2.343706         2
        21        22        23        41     9        0.000000       -0.080764         3
        21        22        23        41     9      180.000000        5.696217         4
        21        22        23        42     9        0.000000       27.788822         1
        21        22        23        42     9      180.000000        2.343706         2
        21        22        23        42     9        0.000000       -0.080764         3
        21        22        23        42     9      180.000000        5.696217         4
        21        23        22        39     9        0.000000       27.788822         1
        21        23        22        39     9      180.000000        2.343706         2
        21        23        22        39     9        0.000000       -0.080764         3
        21        23        22        39     9      180.000000        5.696217         4
        21        23        22        40     9        0.000000       27.788822         1
        21        23        22        40     9      180.000000        2.343706         2
        21        23        22        40     9        0.000000       -0.080764         3
        21        23        22        40     9      180.000000        5.696217         4
        22        21         6        24     9        0.000000       -0.543666         1
        22        21         6        24     9      180.000000       -0.010016         2
        22        21         6        24     9        0.000000        0.823229         3
        22        21         6        24     9      180.000000        0.023438         4
        22        21        23        41     9        0.000000       32.216265         1
        22        21        23        41     9      180.000000        2.449344         2
        22        21        23        41     9        0.000000        0.006300         3
        22        21        23        41     9      180.000000        6.330639         4
        22        21        23        42     9        0.000000       32.216265         1
        22        21        23        42     9      180.000000        2.449344         2
        22        21        23        42     9        0.000000        0.006300         3
        22        21        23        42     9      180.000000        6.330639         4
        22        23        21        38     9        0.000000       33.214309         1
        22        23        21        38     9      180.000000        4.388813         2
        22        23        21        38     9        0.000000       -0.341485         3
        22        23        21        38     9      180.000000        6.831462         4
        23        21         6        24     9        0.000000       -0.543665         1
        23        21         6        24     9      180.000000       -0.010015         2
        23        21         6        24     9        0.000000        0.823229         3
        23        21         6        24     9      180.000000        0.023438         4
        23        21        22        39     9        0.000000       32.216261         1
        23        21        22        39     9      180.000000        2.449344         2
        23        21        22        39     9        0.000000        0.006300         3
        23        21        22        39     9      180.000000        6.330640         4
        23        21        22        40     9        0.000000       32.216261         1
        23        21        22        40     9      180.000000        2.449344         2
        23        21        22        40     9        0.000000        0.006300         3
        23        21        22        40     9      180.000000        6.330640         4
        23        22        21        38     9        0.000000       33.214303         1
        23        22        21        38     9      180.000000        4.388813         2
        23        22        21        38     9        0.000000       -0.341485         3
        23        22        21        38     9      180.000000        6.831462         4
        24         2         1        26     9        0.000000       -0.076232         1
        24         2         1        26     9      180.000000       -0.069377         2
        24         2         1        26     9        0.000000       -0.309860         3
        24         2         1        26     9      180.000000        0.046067         4
        24         2         1        27     9        0.000000       -0.076232         1
        24         2         1        27     9      180.000000       -0.069377         2
        24         2         1        27     9        0.000000       -0.309860         3
        24         2         1        27     9      180.000000        0.046067         4
        24         2         1        28     9        0.000000       -0.076232         1
        24         2         1        28     9      180.000000       -0.069377         2
        24         2         1        28     9        0.000000       -0.309860         3
        24         2         1        28     9      180.000000        0.046067         4
        24         6         5        30     9        0.000000       -0.684303         1
        24         6         5        30     9      180.000000       -0.486763         2
        24         6         5        30     9        0.000000        0.139437         3
        24         6         5        30     9      180.000000        0.153062         4
        24         6        21        38     9        0.000000        0.320144         1
        24         6        21        38     9      180.000000        0.180787         2
        24         6        21        38     9        0.000000        0.829727         3
        24         6        21        38     9      180.000000        0.033272         4
        31         8         9        32     9        0.000000       -0.140623         1
        31         8         9        32     9      180.000000       11.913578         2
        31         8         9        32     9        0.000000       -0.716172         3
        31         8         9        32     9      180.000000        0.300768         4
        32         9        10        33     9        0.000000       -0.170500         1
        32         9        10        33     9      180.000000       11.978213         2
        32         9        10        33     9        0.000000       -0.721176         3
        32         9        10        33     9      180.000000        0.313437         4
        38        21        22        39     9        0.000000        1.157646         1
        38        21        22        39     9      180.000000       -0.567151         2
        38        21        22        39     9        0.000000        0.081132         3
        38        21        22        39     9      180.000000        1.453200         4
        38        21        22        40     9        0.000000        1.157646         1
        38        21        22        40     9      180.000000       -0.567151         2
        38        21        22        40     9        0.000000        0.081132         3
        38        21        22        40     9      180.000000        1.453200         4
        38        21        23        41     9        0.000000        1.157648         1
        38        21        23        41     9      180.000000       -0.567151         2
        38        21        23        41     9        0.000000        0.081132         3
        38        21        23        41     9      180.000000        1.453199         4
        38        21        23        42     9        0.000000        1.157648         1
        38        21        23        42     9      180.000000       -0.567151         2
        38        21        23        42     9        0.000000        0.081132         3
        38        21        23        42     9      180.000000        1.453199         4
        39        22        23        41     9        0.000000        1.448269         1
        39        22        23        41     9      180.000000        0.067815         2
        39        22        23        41     9        0.000000        0.081955         3
        39        22        23        41     9      180.000000        1.066065         4
        39        22        23        42     9        0.000000        1.448269         1
        39        22        23        42     9      180.000000        0.067815         2
        39        22        23        42     9        0.000000        0.081955         3
        39        22        23        42     9      180.000000        1.066065         4
        40        22        23        41     9        0.000000        1.448269         1
        40        22        23        41     9      180.000000        0.067815         2
        40        22        23        41     9        0.000000        0.081955         3
        40        22        23        41     9      180.000000        1.066065         4
        40        22        23        42     9        0.000000        1.448269         1
        40        22        23        42     9      180.000000        0.067815         2
        40        22        23        42     9        0.000000        0.081955         3
        40        22        23        42     9      180.000000        1.066065         4

[ dihedrals ] ; impropers
;       ai        aj        ak        al funct           phase               k        pn
         3         2         4         5     4      180.000000       10.969360         2
         3         4         5         2     4      180.000000       10.969360         2
         3         5         2         4     4      180.000000       10.969360         2
        13        12        14        34     4      180.000000        4.360014         2
        13        14        34        12     4      180.000000        4.360014         2
        13        34        12        14     4      180.000000        4.360014         2
        15        14        16        35     4      180.000000        7.032434         2
        15        16        35        14     4      180.000000        7.032434         2
        15        35        14        16     4      180.000000        7.032434         2
        24         2         6        25     4      180.000000       27.893333         2
        24         6        25         2     4      180.000000       27.893333         2
        24        25         2         6     4      180.000000       27.893333         2

[ pairs ]
;       ai        aj funct
         1         4     1
         1         5     1
         1         6     1
         1        25     1
         2         7     1
         2        21     1
         2        29     1
         2        30     1
         2        43     1
         3         7     1
         3        21     1
         3        25     1
         3        26     1
         3        27     1
         3        28     1
         4         6     1
         4        24     1
         4        30     1
         5         8     1
         5        20     1
         5        22     1
         5        23     1
         5        25     1
         5        29     1
         5        38     1
         5        43     1
         6         9     1
         6        11     1
         6        31     1
         6        37     1
         6        39     1
         6        40     1
         6        41     1
         6        42     1
         7        10     1
         7        12     1
         7        22     1
         7        23     1
         7        25     1
         7        30     1
         7        32     1
         7        38     1
         8        11     1
         8        21     1
         8        24     1
         8        33     1
         8        37     1
         9        12     1
         9        20     1
        10        13     1
        10        19     1
        10        31     1
        10        37     1
        11        14     1
        11        16     1
        11        32     1
        11        34     1
        11        36     1
        12        15     1
        12        17     1
        12        33     1
        12        37     1
        13        16     1
        13        20     1
        13        35     1
        13        36     1
        14        17     1
        14        19     1
        15        18     1
        15        34     1
        15        36     1
        17        35     1
        17        36     1
        18        19     1
        19        20     1
        19        34     1
        19        35     1
        20        21     1
        20        24     1
        20        31     1
        20        33     1
        21        25     1
        21        30     1
        22        24     1
        23        24     1
        24        26     1
        24        27     1
        24        28     1
        24        30     1
        24        38     1
        31        32     1
        32        33     1
        38        39     1
        38        40     1
        38        41     1
        38        42     1
        39        41     1
        39        42     1
        40        41     1
        40        42     1
