; ITP file created by ByteFF-ML, 2026-02-21 08:14:17.739246

[ atomtypes ]
;name           bonded.type        at.num        mass        charge   ptype           sigma         epsilon
 c0bf                                   6      0.0000       0.00000       A     3.39913e-01     4.52602e-01
 n1bf                                   7      0.0000       0.00000       A     3.18285e-01     7.05533e-01
 c2bf                                   6      0.0000       0.00000       A     3.31191e-01     4.10753e-01
 n3bf                                   7      0.0000       0.00000       A     3.36726e-01     4.77395e-01
 n4bf                                   7      0.0000       0.00000       A     3.27091e-01     6.48370e-01
 c5bf                                   6      0.0000       0.00000       A     3.39935e-01     4.50687e-01
 c6bf                                   6      0.0000       0.00000       A     3.31652e-01     4.15583e-01
 c7bf                                   6      0.0000       0.00000       A     3.31498e-01     4.13918e-01
 c8bf                                   6      0.0000       0.00000       A     3.31495e-01     4.13369e-01
 c9bf                                   6      0.0000       0.00000       A     3.31500e-01     4.12376e-01
 c10bf                                  6      0.0000       0.00000       A     3.31401e-01     4.12285e-01
 c11bf                                  6      0.0000       0.00000       A     3.31338e-01     4.14041e-01
 c12bf                                  6      0.0000       0.00000       A     3.31495e-01     4.12332e-01
 c13bf                                  6      0.0000       0.00000       A     3.31470e-01     4.12993e-01
 c14bf                                  6      0.0000       0.00000       A     3.31492e-01     4.12697e-01
 c15bf                                  6      0.0000       0.00000       A     3.31464e-01     4.12774e-01
 cl16bf                                17      0.0000       0.00000       A     3.46727e-01     1.10410e+00
 c17bf                                  6      0.0000       0.00000       A     3.31525e-01     4.12943e-01
 c18bf                                  6      0.0000       0.00000       A     3.31614e-01     4.15465e-01
 c19bf                                  6      0.0000       0.00000       A     3.39668e-01     4.49812e-01
 c20bf                                  6      0.0000       0.00000       A     3.39910e-01     4.52095e-01
 c21bf                                  6      0.0000       0.00000       A     3.39831e-01     4.50808e-01
 c22bf                                  6      0.0000       0.00000       A     3.39819e-01     4.51242e-01
 c23bf                                  6      0.0000       0.00000       A     3.39831e-01     4.50808e-01
 c24bf                                  6      0.0000       0.00000       A     3.39910e-01     4.52095e-01
 c25bf                                  6      0.0000       0.00000       A     3.31446e-01     4.15953e-01
 o26bf                                  8      0.0000       0.00000       A     3.04419e-01     6.15989e-01
 h27bf                                  1      0.0000       0.00000       A     2.42205e-01     8.61909e-02
 h28bf                                  1      0.0000       0.00000       A     2.42205e-01     8.61909e-02
 h29bf                                  1      0.0000       0.00000       A     2.42205e-01     8.61909e-02
 h30bf                                  1      0.0000       0.00000       A     1.10384e-01     3.90095e-02
 h31bf                                  1      0.0000       0.00000       A     1.10446e-01     4.03135e-02
 h32bf                                  1      0.0000       0.00000       A     2.62582e-01     6.77547e-02
 h33bf                                  1      0.0000       0.00000       A     2.62513e-01     6.74259e-02
 h34bf                                  1      0.0000       0.00000       A     2.62472e-01     6.74738e-02
 h35bf                                  1      0.0000       0.00000       A     2.62472e-01     6.74738e-02
 h36bf                                  1      0.0000       0.00000       A     2.62502e-01     6.73461e-02
 h37bf                                  1      0.0000       0.00000       A     2.62496e-01     6.71211e-02
 h38bf                                  1      0.0000       0.00000       A     2.62435e-01     6.74259e-02
 h39bf                                  1      0.0000       0.00000       A     2.62575e-01     6.76813e-02
 h40bf                                  1      0.0000       0.00000       A     2.59512e-01     8.58797e-02
 h41bf                                  1      0.0000       0.00000       A     2.59992e-01     8.66777e-02
 h42bf                                  1      0.0000       0.00000       A     2.59992e-01     8.66777e-02
 h43bf                                  1      0.0000       0.00000       A     2.60015e-01     8.70704e-02
 h44bf                                  1      0.0000       0.00000       A     2.60015e-01     8.70704e-02
 h45bf                                  1      0.0000       0.00000       A     2.59998e-01     8.72507e-02
 h46bf                                  1      0.0000       0.00000       A     2.59998e-01     8.72507e-02
 h47bf                                  1      0.0000       0.00000       A     2.60015e-01     8.70704e-02
 h48bf                                  1      0.0000       0.00000       A     2.60015e-01     8.70704e-02
 h49bf                                  1      0.0000       0.00000       A     2.59992e-01     8.66777e-02
 h50bf                                  1      0.0000       0.00000       A     2.59992e-01     8.66777e-02
 h51bf                                  1      0.0000       0.00000       A     1.10384e-01     3.90095e-02

[ moleculetype ]
;name             nrexcl
 CAT-13g               3

[ atoms ]
;       nr            type      resi   res      atom      cgnr      charge          mass ; qtot
         1            c0bf         1   UNL        c0         1     0.07178       12.0110 ; qtot    0.072
         2            n1bf         1   UNL        n1         2    -0.59200       14.0070 ; qtot   -0.520
         3            c2bf         1   UNL        c2         3     0.93172       12.0110 ; qtot    0.411
         4            n3bf         1   UNL        n3         4    -0.58736       14.0070 ; qtot   -0.176
         5            n4bf         1   UNL        n4         5    -0.60940       14.0070 ; qtot   -0.785
         6            c5bf         1   UNL        c5         6     0.07714       12.0110 ; qtot   -0.708
         7            c6bf         1   UNL        c6         7    -0.13203       12.0110 ; qtot   -0.840
         8            c7bf         1   UNL        c7         8    -0.07574       12.0110 ; qtot   -0.916
         9            c8bf         1   UNL        c8         9    -0.09445       12.0110 ; qtot   -1.010
        10            c9bf         1   UNL        c9        10    -0.09254       12.0110 ; qtot   -1.103
        11           c10bf         1   UNL       c10        11    -0.02642       12.0110 ; qtot   -1.129
        12           c11bf         1   UNL       c11        12    -0.02679       12.0110 ; qtot   -1.156
        13           c12bf         1   UNL       c12        13    -0.10326       12.0110 ; qtot   -1.259
        14           c13bf         1   UNL       c13        14    -0.10402       12.0110 ; qtot   -1.363
        15           c14bf         1   UNL       c14        15    -0.09512       12.0110 ; qtot   -1.458
        16           c15bf         1   UNL       c15        16     0.12011       12.0110 ; qtot   -1.338
        17          cl16bf         1   UNL      cl16        17    -0.20970       35.4530 ; qtot   -1.548
        18           c17bf         1   UNL       c17        18    -0.09584       12.0110 ; qtot   -1.644
        19           c18bf         1   UNL       c18        19    -0.06193       12.0110 ; qtot   -1.706
        20           c19bf         1   UNL       c19        20    -0.05259       12.0110 ; qtot   -1.758
        21           c20bf         1   UNL       c20        21    -0.06924       12.0110 ; qtot   -1.828
        22           c21bf         1   UNL       c21        22    -0.07444       12.0110 ; qtot   -1.902
        23           c22bf         1   UNL       c22        23    -0.07816       12.0110 ; qtot   -1.980
        24           c23bf         1   UNL       c23        24    -0.07444       12.0110 ; qtot   -2.055
        25           c24bf         1   UNL       c24        25    -0.06924       12.0110 ; qtot   -2.124
        26           c25bf         1   UNL       c25        26     0.54250       12.0110 ; qtot   -1.581
        27           o26bf         1   UNL       o26        27    -0.38363       15.9990 ; qtot   -1.965
        28           h27bf         1   UNL       h27        28     0.08966        1.0080 ; qtot   -1.875
        29           h28bf         1   UNL       h28        29     0.08966        1.0080 ; qtot   -1.786
        30           h29bf         1   UNL       h29        30     0.08966        1.0080 ; qtot   -1.696
        31           h30bf         1   UNL       h30        31     0.38414        1.0080 ; qtot   -1.312
        32           h31bf         1   UNL       h31        32     0.41411        1.0080 ; qtot   -0.898
        33           h32bf         1   UNL       h32        33     0.12954        1.0080 ; qtot   -0.768
        34           h33bf         1   UNL       h33        34     0.12098        1.0080 ; qtot   -0.647
        35           h34bf         1   UNL       h34        35     0.11650        1.0080 ; qtot   -0.531
        36           h35bf         1   UNL       h35        36     0.11993        1.0080 ; qtot   -0.411
        37           h36bf         1   UNL       h36        37     0.12261        1.0080 ; qtot   -0.288
        38           h37bf         1   UNL       h37        38     0.13516        1.0080 ; qtot   -0.153
        39           h38bf         1   UNL       h38        39     0.13341        1.0080 ; qtot   -0.020
        40           h39bf         1   UNL       h39        40     0.13098        1.0080 ; qtot    0.111
        41           h40bf         1   UNL       h40        41     0.07076        1.0080 ; qtot    0.182
        42           h41bf         1   UNL       h41        42     0.04821        1.0080 ; qtot    0.230
        43           h42bf         1   UNL       h42        43     0.04821        1.0080 ; qtot    0.278
        44           h43bf         1   UNL       h43        44     0.04129        1.0080 ; qtot    0.320
        45           h44bf         1   UNL       h44        45     0.04129        1.0080 ; qtot    0.361
        46           h45bf         1   UNL       h45        46     0.03792        1.0080 ; qtot    0.399
        47           h46bf         1   UNL       h46        47     0.03792        1.0080 ; qtot    0.437
        48           h47bf         1   UNL       h47        48     0.04129        1.0080 ; qtot    0.478
        49           h48bf         1   UNL       h48        49     0.04129        1.0080 ; qtot    0.519
        50           h49bf         1   UNL       h49        50     0.04821        1.0080 ; qtot    0.568
        51           h50bf         1   UNL       h50        51     0.04821        1.0080 ; qtot    0.616
        52           h51bf         1   UNL       h51        52     0.38415        1.0080 ; qtot    1.000

[ bonds ]
;       ai        aj funct               r               k
         1         2     1        0.146764   194626.201514
         1        28     1        0.109020   312445.639404
         1        29     1        0.109020   312445.639404
         1        30     1        0.109020   312445.639404
         2         3     1        0.135535   306769.327344
         2        26     1        0.142420   149246.183569
         3         4     1        0.133033   418996.419189
         3         5     1        0.133384   384853.023047
         4        31     1        0.101330   425113.935889
         4        52     1        0.101330   425113.935889
         5         6     1        0.148730   142338.459326
         5        32     1        0.101314   425412.362549
         6         7     1        0.152402   165572.785400
         6        20     1        0.155955   127734.514282
         6        26     1        0.154498   127579.618945
         7         8     1        0.140145   291799.550439
         7        19     1        0.139954   295021.925049
         8         9     1        0.139649   314429.796191
         8        33     1        0.108525   321185.715088
         9        10     1        0.139587   315834.005225
         9        34     1        0.108609   320193.343018
        10        11     1        0.140527   285778.717236
        10        35     1        0.108587   318592.753613
        11        12     1        0.148302   214209.193384
        11        19     1        0.140379   286989.022998
        12        13     1        0.140642   283730.615527
        12        18     1        0.140548   284644.231152
        13        14     1        0.139639   316467.197852
        13        36     1        0.108557   319942.823975
        14        15     1        0.139818   306197.015186
        14        37     1        0.108593   321221.875635
        15        16     1        0.139667   296743.126221
        15        38     1        0.108450   326068.844531
        16        17     1        0.175898   146278.069189
        16        18     1        0.139434   307507.503027
        18        39     1        0.108450   323511.456250
        19        40     1        0.108501   320086.572363
        20        21     1        0.154575   165335.137061
        20        25     1        0.154575   165335.137061
        20        41     1        0.109606   298901.037500
        21        22     1        0.153883   180481.656299
        21        42     1        0.109474   296731.762207
        21        43     1        0.109474   296731.762207
        22        23     1        0.153970   181728.684424
        22        44     1        0.109574   294092.144434
        22        45     1        0.109574   294092.144434
        23        24     1        0.153970   181728.684424
        23        46     1        0.109628   292831.428418
        23        47     1        0.109628   292831.428418
        24        25     1        0.153883   180481.681836
        24        48     1        0.109574   294092.144434
        24        49     1        0.109574   294092.144434
        25        50     1        0.109474   296731.762207
        25        51     1        0.109474   296731.762207
        26        27     1        0.120423   715451.742188

[ angles ]
;       ai        aj        ak funct           theta             cth
         1         2         3     1      126.637924      467.188552
         1         2        26     1      123.337280      532.343869
         2         1        28     1      109.232468      484.707424
         2         1        29     1      109.232468      484.707424
         2         1        30     1      109.232468      484.707424
         2         3         4     1      123.913864      625.446519
         2         3         5     1      111.268265      595.301494
         2        26         6     1      106.334000      167.360000
         2        26        27     1      124.491638      648.220577
         3         2        26     1      109.766235      842.254535
         3         4        31     1      121.339638      451.015326
         3         4        52     1      121.339638      451.015390
         3         5         6     1      111.925705      620.030865
         3         5        32     1      123.472580      428.605650
         4         3         5     1      125.421463      614.952938
         5         6         7     1      110.515465      608.281368
         5         6        20     1      110.238541      604.378276
         5         6        26     1      100.217644      343.057387
         6         5        32     1      121.706848      357.191571
         6         7         8     1      120.277504      482.438068
         6         7        19     1      120.093140      441.391219
         6        20        21     1      112.500565      594.467580
         6        20        25     1      112.500565      594.467580
         6        20        41     1      104.823059      493.633665
         6        26        27     1      128.101776      366.327280
         7         6        20     1      114.322830      519.633283
         7         6        26     1      111.637001      604.207561
         7         8         9     1      119.832924      675.967668
         7         8        33     1      120.540146      402.900666
         7        19        11     1      121.311646      663.941605
         7        19        40     1      119.879410      402.093598
         8         7        19     1      119.422401      696.287035
         8         9        10     1      120.368362      726.068412
         8         9        34     1      119.801315      430.558314
         9         8        33     1      119.567650      424.055289
         9        10        11     1      120.435143      707.065419
         9        10        35     1      119.757401      429.008307
        10         9        34     1      119.795792      435.977033
        10        11        12     1      120.864792      513.300399
        10        11        19     1      118.298706      675.165931
        11        10        35     1      119.771523      427.059634
        11        12        13     1      120.940407      503.081917
        11        12        18     1      120.422142      481.478895
        11        19        40     1      118.818504      417.678385
        12        11        19     1      120.845932      417.672256
        12        13        14     1      120.709496      710.226339
        12        13        36     1      119.625290      429.265114
        12        18        16     1      119.954468      654.295153
        12        18        39     1      120.525940      413.949137
        13        12        18     1      118.518814      610.093928
        13        14        15     1      120.716507      706.259979
        13        14        37     1      119.854904      434.295574
        14        13        36     1      119.665451      434.119208
        14        15        16     1      118.458839      608.116654
        14        15        38     1      121.243332      419.806776
        15        14        37     1      119.403748      439.510571
        15        16        17     1      119.263100      362.742700
        15        16        18     1      121.578903      646.790308
        16        15        38     1      120.373581      408.925573
        16        18        39     1      119.578125      413.311731
        17        16        18     1      119.060081      368.288051
        20         6        26     1      111.014359      653.124979
        20        21        22     1      111.261353      621.776454
        20        21        42     1      109.797585      485.232977
        20        21        43     1      109.797585      485.232977
        20        25        24     1      111.261353      621.776454
        20        25        50     1      109.797585      485.232977
        20        25        51     1      109.797585      485.232977
        21        20        25     1      110.501343      555.865557
        21        20        41     1      107.749245      480.696246
        21        22        23     1      111.360817      635.839165
        21        22        44     1      109.536148      510.513630
        21        22        45     1      109.536148      510.513630
        22        21        42     1      109.663940      507.262054
        22        21        43     1      109.663940      507.262054
        22        23        24     1      111.020386      575.054652
        22        23        46     1      109.769920      508.065324
        22        23        47     1      109.769920      508.065324
        23        22        44     1      109.913589      497.425862
        23        22        45     1      109.913589      497.425862
        23        24        25     1      111.360817      635.839165
        23        24        48     1      109.913589      497.425862
        23        24        49     1      109.913589      497.425862
        24        23        46     1      109.769920      508.065324
        24        23        47     1      109.769920      508.065324
        24        25        50     1      109.663940      507.262054
        24        25        51     1      109.663940      507.262054
        25        20        41     1      107.749245      480.696246
        25        24        48     1      109.536148      510.513630
        25        24        49     1      109.536148      510.513630
        28         1        29     1      109.820877      349.302264
        28         1        30     1      109.820877      349.302264
        29         1        30     1      109.820877      349.302264
        31         4        52     1      117.449181      314.162978
        42        21        43     1      106.335548      362.284628
        44        22        45     1      106.311363      363.958650
        46        23        47     1      106.418236      366.094669
        48        24        49     1      106.311378      363.958650
        50        25        51     1      106.335548      362.284628

[ dihedrals ] ; propers for gromacs 4.5 or higher, use funct 9
;       ai        aj        ak        al funct           phase               k        pn
         1         2         3         4     9        0.000000        1.658529         1
         1         2         3         4     9      180.000000        7.631277         2
         1         2         3         4     9        0.000000       -0.060815         3
         1         2         3         4     9      180.000000       -0.126566         4
         1         2         3         5     9        0.000000       -2.619577         1
         1         2         3         5     9      180.000000        5.834925         2
         1         2         3         5     9        0.000000       -0.206799         3
         1         2         3         5     9      180.000000        0.046372         4
         1         2        26         6     9        0.000000       -0.789009         1
         1         2        26         6     9      180.000000        6.052334         2
         1         2        26         6     9        0.000000        0.227313         3
         1         2        26         6     9      180.000000       -0.171472         4
         1         2        26        27     9        0.000000       -0.378046         1
         1         2        26        27     9      180.000000        9.250569         2
         1         2        26        27     9        0.000000       -0.328059         3
         1         2        26        27     9      180.000000        0.245085         4
         2         3         4        31     9        0.000000       -0.819981         1
         2         3         4        31     9      180.000000        6.209459         2
         2         3         4        31     9        0.000000        0.280252         3
         2         3         4        31     9      180.000000       -0.654749         4
         2         3         4        52     9        0.000000       -0.819981         1
         2         3         4        52     9      180.000000        6.209459         2
         2         3         4        52     9        0.000000        0.280252         3
         2         3         4        52     9      180.000000       -0.654749         4
         2         3         5         6     9        0.000000       -1.512343         1
         2         3         5         6     9      180.000000       22.144163         2
         2         3         5         6     9        0.000000       -1.491605         3
         2         3         5         6     9      180.000000       -2.635765         4
         2         3         5        32     9        0.000000       -0.513083         1
         2         3         5        32     9      180.000000        8.607184         2
         2         3         5        32     9        0.000000        0.027208         3
         2         3         5        32     9      180.000000       -0.826766         4
         2        26         6         5     9        0.000000        0.765553         1
         2        26         6         5     9      180.000000        8.701801         2
         2        26         6         5     9        0.000000       -0.371233         3
         2        26         6         5     9      180.000000       -0.396385         4
         2        26         6         7     9        0.000000        1.070924         1
         2        26         6         7     9      180.000000        0.724621         2
         2        26         6         7     9        0.000000        0.307601         3
         2        26         6         7     9      180.000000        0.907915         4
         2        26         6        20     9        0.000000       -2.111227         1
         2        26         6        20     9      180.000000        1.849076         2
         2        26         6        20     9        0.000000        0.143991         3
         2        26         6        20     9      180.000000        0.604755         4
         3         2         1        28     9        0.000000        0.015728         1
         3         2         1        28     9      180.000000       -0.001654         2
         3         2         1        28     9        0.000000        0.181648         3
         3         2         1        28     9      180.000000       -0.015040         4
         3         2         1        29     9        0.000000        0.015728         1
         3         2         1        29     9      180.000000       -0.001654         2
         3         2         1        29     9        0.000000        0.181648         3
         3         2         1        29     9      180.000000       -0.015040         4
         3         2         1        30     9        0.000000        0.015728         1
         3         2         1        30     9      180.000000       -0.001654         2
         3         2         1        30     9        0.000000        0.181648         3
         3         2         1        30     9      180.000000       -0.015040         4
         3         2        26         6     9        0.000000       -3.059967         1
         3         2        26         6     9      180.000000       11.479713         2
         3         2        26         6     9        0.000000       -1.531256         3
         3         2        26         6     9      180.000000       -0.421155         4
         3         2        26        27     9        0.000000        1.614779         1
         3         2        26        27     9      180.000000       17.008619         2
         3         2        26        27     9        0.000000       -0.500956         3
         3         2        26        27     9      180.000000       -0.884290         4
         3         5         6         7     9        0.000000        0.472317         1
         3         5         6         7     9      180.000000        0.753931         2
         3         5         6         7     9        0.000000        0.254404         3
         3         5         6         7     9      180.000000        0.311217         4
         3         5         6        20     9        0.000000       -2.645871         1
         3         5         6        20     9      180.000000        1.602178         2
         3         5         6        20     9        0.000000        0.209055         3
         3         5         6        20     9      180.000000        0.168628         4
         3         5         6        26     9        0.000000       -1.912703         1
         3         5         6        26     9      180.000000        6.901117         2
         3         5         6        26     9        0.000000       -0.380395         3
         3         5         6        26     9      180.000000       -1.727530         4
         4         3         2        26     9        0.000000        1.464028         1
         4         3         2        26     9      180.000000       13.127210         2
         4         3         2        26     9        0.000000       -0.247606         3
         4         3         2        26     9      180.000000       -0.798383         4
         4         3         5         6     9        0.000000        2.241382         1
         4         3         5         6     9      180.000000       17.477889         2
         4         3         5         6     9        0.000000        0.799290         3
         4         3         5         6     9      180.000000       -1.936759         4
         4         3         5        32     9        0.000000       -0.962261         1
         4         3         5        32     9      180.000000        7.984078         2
         4         3         5        32     9        0.000000        0.367795         3
         4         3         5        32     9      180.000000       -0.434039         4
         5         3         2        26     9        0.000000       -1.473071         1
         5         3         2        26     9      180.000000       14.960862         2
         5         3         2        26     9        0.000000       -2.791442         3
         5         3         2        26     9      180.000000       -1.301721         4
         5         3         4        31     9        0.000000       -1.683533         1
         5         3         4        31     9      180.000000        6.546796         2
         5         3         4        31     9        0.000000       -0.070324         3
         5         3         4        31     9      180.000000       -0.512436         4
         5         3         4        52     9        0.000000       -1.683534         1
         5         3         4        52     9      180.000000        6.546795         2
         5         3         4        52     9        0.000000       -0.070324         3
         5         3         4        52     9      180.000000       -0.512436         4
         5         6         7         8     9        0.000000       -0.283423         1
         5         6         7         8     9      180.000000        1.319811         2
         5         6         7         8     9        0.000000        0.217864         3
         5         6         7         8     9      180.000000        0.155292         4
         5         6         7        19     9        0.000000       -0.096267         1
         5         6         7        19     9      180.000000        1.365442         2
         5         6         7        19     9        0.000000        0.132295         3
         5         6         7        19     9      180.000000        0.154641         4
         5         6        20        21     9        0.000000       -0.200271         1
         5         6        20        21     9      180.000000        0.009879         2
         5         6        20        21     9        0.000000        0.803746         3
         5         6        20        21     9      180.000000       -0.000534         4
         5         6        20        25     9        0.000000       -0.200271         1
         5         6        20        25     9      180.000000        0.009879         2
         5         6        20        25     9        0.000000        0.803746         3
         5         6        20        25     9      180.000000       -0.000534         4
         5         6        20        41     9        0.000000       -0.398262         1
         5         6        20        41     9      180.000000        0.115388         2
         5         6        20        41     9        0.000000        0.775218         3
         5         6        20        41     9      180.000000       -0.113541         4
         5         6        26        27     9        0.000000        7.883388         1
         5         6        26        27     9      180.000000        6.194464         2
         5         6        26        27     9        0.000000       -0.032910         3
         5         6        26        27     9      180.000000        0.330221         4
         6         7         8         9     9        0.000000        0.169314         1
         6         7         8         9     9      180.000000       14.590119         2
         6         7         8         9     9        0.000000       -0.093164         3
         6         7         8         9     9      180.000000       -0.148853         4
         6         7         8        33     9        0.000000        0.073035         1
         6         7         8        33     9      180.000000       12.581625         2
         6         7         8        33     9        0.000000       -0.273794         3
         6         7         8        33     9      180.000000        0.165344         4
         6         7        19        11     9        0.000000        0.174833         1
         6         7        19        11     9      180.000000       14.495484         2
         6         7        19        11     9        0.000000       -0.057652         3
         6         7        19        11     9      180.000000       -0.237502         4
         6         7        19        40     9        0.000000        0.076384         1
         6         7        19        40     9      180.000000       12.727733         2
         6         7        19        40     9        0.000000       -0.275399         3
         6         7        19        40     9      180.000000        0.167752         4
         6        20        21        22     9        0.000000       -0.090170         1
         6        20        21        22     9      180.000000       -0.152254         2
         6        20        21        22     9        0.000000        0.191047         3
         6        20        21        22     9      180.000000        0.041125         4
         6        20        21        42     9        0.000000       -0.076558         1
         6        20        21        42     9      180.000000        0.029816         2
         6        20        21        42     9        0.000000        0.283975         3
         6        20        21        42     9      180.000000       -0.005949         4
         6        20        21        43     9        0.000000       -0.076558         1
         6        20        21        43     9      180.000000        0.029816         2
         6        20        21        43     9        0.000000        0.283975         3
         6        20        21        43     9      180.000000       -0.005949         4
         6        20        25        24     9        0.000000       -0.090170         1
         6        20        25        24     9      180.000000       -0.152254         2
         6        20        25        24     9        0.000000        0.191047         3
         6        20        25        24     9      180.000000        0.041125         4
         6        20        25        50     9        0.000000       -0.076558         1
         6        20        25        50     9      180.000000        0.029816         2
         6        20        25        50     9        0.000000        0.283975         3
         6        20        25        50     9      180.000000       -0.005949         4
         6        20        25        51     9        0.000000       -0.076558         1
         6        20        25        51     9      180.000000        0.029816         2
         6        20        25        51     9        0.000000        0.283975         3
         6        20        25        51     9      180.000000       -0.005949         4
         7         6         5        32     9        0.000000        1.011726         1
         7         6         5        32     9      180.000000        0.747653         2
         7         6         5        32     9        0.000000        0.141272         3
         7         6         5        32     9      180.000000       -0.055171         4
         7         6        20        21     9        0.000000        0.460954         1
         7         6        20        21     9      180.000000        0.300775         2
         7         6        20        21     9        0.000000        1.138564         3
         7         6        20        21     9      180.000000        0.054157         4
         7         6        20        25     9        0.000000        0.460954         1
         7         6        20        25     9      180.000000        0.300775         2
         7         6        20        25     9        0.000000        1.138564         3
         7         6        20        25     9      180.000000        0.054157         4
         7         6        20        41     9        0.000000       -0.318462         1
         7         6        20        41     9      180.000000        0.163023         2
         7         6        20        41     9        0.000000        0.758598         3
         7         6        20        41     9      180.000000        0.055698         4
         7         6        26        27     9        0.000000       -0.168629         1
         7         6        26        27     9      180.000000        1.145536         2
         7         6        26        27     9        0.000000       -0.365209         3
         7         6        26        27     9      180.000000        0.436589         4
         7         8         9        10     9        0.000000        0.140733         1
         7         8         9        10     9      180.000000       18.592825         2
         7         8         9        10     9        0.000000       -1.488347         3
         7         8         9        10     9      180.000000       -0.463266         4
         7         8         9        34     9        0.000000        0.056312         1
         7         8         9        34     9      180.000000       15.089969         2
         7         8         9        34     9        0.000000       -0.574113         3
         7         8         9        34     9      180.000000        0.083822         4
         7        19        11        10     9        0.000000       -0.054664         1
         7        19        11        10     9      180.000000       18.756532         2
         7        19        11        10     9        0.000000       -1.533081         3
         7        19        11        10     9      180.000000       -0.499934         4
         7        19        11        12     9        0.000000        0.272087         1
         7        19        11        12     9      180.000000       16.901217         2
         7        19        11        12     9        0.000000       -0.117418         3
         7        19        11        12     9      180.000000       -0.444104         4
         8         7         6        20     9        0.000000        0.022308         1
         8         7         6        20     9      180.000000        0.655840         2
         8         7         6        20     9        0.000000        0.282612         3
         8         7         6        20     9      180.000000       -0.003931         4
         8         7         6        26     9        0.000000       -0.237325         1
         8         7         6        26     9      180.000000       -0.594161         2
         8         7         6        26     9        0.000000        0.190319         3
         8         7         6        26     9      180.000000        0.155047         4
         8         7        19        11     9        0.000000       -0.066890         1
         8         7        19        11     9      180.000000       19.026427         2
         8         7        19        11     9        0.000000       -1.488588         3
         8         7        19        11     9      180.000000       -0.469717         4
         8         7        19        40     9        0.000000        0.038722         1
         8         7        19        40     9      180.000000       14.398123         2
         8         7        19        40     9        0.000000       -0.699329         3
         8         7        19        40     9      180.000000        0.055428         4
         8         9        10        11     9        0.000000       -0.031444         1
         8         9        10        11     9      180.000000       18.771806         2
         8         9        10        11     9        0.000000       -1.502178         3
         8         9        10        11     9      180.000000       -0.328429         4
         8         9        10        35     9        0.000000        0.066951         1
         8         9        10        35     9      180.000000       14.566385         2
         8         9        10        35     9        0.000000       -0.734857         3
         8         9        10        35     9      180.000000        0.172918         4
         9         8         7        19     9        0.000000       -0.131622         1
         9         8         7        19     9      180.000000       19.336145         2
         9         8         7        19     9        0.000000       -1.478703         3
         9         8         7        19     9      180.000000       -0.500549         4
         9        10        11        12     9        0.000000        0.230711         1
         9        10        11        12     9      180.000000       16.143627         2
         9        10        11        12     9        0.000000       -0.175042         3
         9        10        11        12     9      180.000000       -0.242327         4
         9        10        11        19     9        0.000000       -0.195669         1
         9        10        11        19     9      180.000000       18.716678         2
         9        10        11        19     9        0.000000       -1.490622         3
         9        10        11        19     9      180.000000       -0.327301         4
        10         9         8        33     9        0.000000        0.078617         1
        10         9         8        33     9      180.000000       14.685594         2
        10         9         8        33     9        0.000000       -0.642921         3
        10         9         8        33     9      180.000000        0.075216         4
        10        11        12        13     9        0.000000       -0.008585         1
        10        11        12        13     9      180.000000        3.332568         2
        10        11        12        13     9        0.000000        0.049477         3
        10        11        12        13     9      180.000000       -0.019550         4
        10        11        12        18     9        0.000000        0.010342         1
        10        11        12        18     9      180.000000        3.335187         2
        10        11        12        18     9        0.000000        0.014786         3
        10        11        12        18     9      180.000000       -0.010781         4
        10        11        19        40     9        0.000000       -0.124092         1
        10        11        19        40     9      180.000000       14.554186         2
        10        11        19        40     9        0.000000       -0.610653         3
        10        11        19        40     9      180.000000       -0.012265         4
        11        10         9        34     9        0.000000       -0.062337         1
        11        10         9        34     9      180.000000       14.727381         2
        11        10         9        34     9        0.000000       -0.608320         3
        11        10         9        34     9      180.000000        0.112786         4
        11        12        13        14     9        0.000000        0.309820         1
        11        12        13        14     9      180.000000       16.378217         2
        11        12        13        14     9        0.000000       -0.083075         3
        11        12        13        14     9      180.000000       -0.285427         4
        11        12        13        36     9        0.000000       -0.067570         1
        11        12        13        36     9      180.000000       13.395219         2
        11        12        13        36     9        0.000000       -0.192716         3
        11        12        13        36     9      180.000000        0.181336         4
        11        12        18        16     9        0.000000        0.233572         1
        11        12        18        16     9      180.000000       16.718049         2
        11        12        18        16     9        0.000000       -0.163612         3
        11        12        18        16     9      180.000000       -0.418278         4
        11        12        18        39     9        0.000000       -0.085990         1
        11        12        18        39     9      180.000000       13.218003         2
        11        12        18        39     9        0.000000       -0.214041         3
        11        12        18        39     9      180.000000        0.208719         4
        12        11        10        35     9        0.000000       -0.103956         1
        12        11        10        35     9      180.000000       13.355988         2
        12        11        10        35     9        0.000000       -0.225764         3
        12        11        10        35     9      180.000000        0.188398         4
        12        11        19        40     9        0.000000       -0.100335         1
        12        11        19        40     9      180.000000       13.346486         2
        12        11        19        40     9        0.000000       -0.154352         3
        12        11        19        40     9      180.000000        0.160927         4
        12        13        14        15     9        0.000000       -0.027105         1
        12        13        14        15     9      180.000000       18.923034         2
        12        13        14        15     9        0.000000       -1.503937         3
        12        13        14        15     9      180.000000       -0.356268         4
        12        13        14        37     9        0.000000       -0.082647         1
        12        13        14        37     9      180.000000       14.805089         2
        12        13        14        37     9        0.000000       -0.643495         3
        12        13        14        37     9      180.000000        0.073654         4
        12        18        16        15     9        0.000000       -0.008240         1
        12        18        16        15     9      180.000000       17.745278         2
        12        18        16        15     9        0.000000       -1.184654         3
        12        18        16        15     9      180.000000       -0.352119         4
        12        18        16        17     9        0.000000        0.356484         1
        12        18        16        17     9      180.000000       19.187195         2
        12        18        16        17     9        0.000000        0.423572         3
        12        18        16        17     9      180.000000       -0.719313         4
        13        12        11        19     9        0.000000        0.017289         1
        13        12        11        19     9      180.000000        3.446078         2
        13        12        11        19     9        0.000000        0.044485         3
        13        12        11        19     9      180.000000       -0.022699         4
        13        12        18        16     9        0.000000       -0.226810         1
        13        12        18        16     9      180.000000       18.460100         2
        13        12        18        16     9        0.000000       -1.564517         3
        13        12        18        16     9      180.000000       -0.363342         4
        13        12        18        39     9        0.000000       -0.081611         1
        13        12        18        39     9      180.000000       14.063209         2
        13        12        18        39     9        0.000000       -0.651845         3
        13        12        18        39     9      180.000000        0.074764         4
        13        14        15        16     9        0.000000       -0.014672         1
        13        14        15        16     9      180.000000       18.658773         2
        13        14        15        16     9        0.000000       -1.423404         3
        13        14        15        16     9      180.000000       -0.430664         4
        13        14        15        38     9        0.000000        0.015296         1
        13        14        15        38     9      180.000000       13.921456         2
        13        14        15        38     9        0.000000       -0.702882         3
        13        14        15        38     9      180.000000        0.159191         4
        14        13        12        18     9        0.000000       -0.178260         1
        14        13        12        18     9      180.000000       18.281466         2
        14        13        12        18     9        0.000000       -1.464057         3
        14        13        12        18     9      180.000000       -0.353057         4
        14        15        16        17     9        0.000000        0.384560         1
        14        15        16        17     9      180.000000       19.125338         2
        14        15        16        17     9        0.000000        0.328218         3
        14        15        16        17     9      180.000000       -0.554486         4
        14        15        16        18     9        0.000000       -0.060650         1
        14        15        16        18     9      180.000000       17.644798         2
        14        15        16        18     9        0.000000       -1.259503         3
        14        15        16        18     9      180.000000       -0.384797         4
        15        14        13        36     9        0.000000        0.073505         1
        15        14        13        36     9      180.000000       14.891523         2
        15        14        13        36     9        0.000000       -0.707691         3
        15        14        13        36     9      180.000000        0.130543         4
        15        16        18        39     9        0.000000        0.006368         1
        15        16        18        39     9      180.000000       13.721602         2
        15        16        18        39     9        0.000000       -0.619973         3
        15        16        18        39     9      180.000000        0.133122         4
        16        15        14        37     9        0.000000        0.036284         1
        16        15        14        37     9      180.000000       14.441092         2
        16        15        14        37     9        0.000000       -0.533853         3
        16        15        14        37     9      180.000000        0.102825         4
        17        16        15        38     9        0.000000        0.203003         1
        17        16        15        38     9      180.000000       13.237179         2
        17        16        15        38     9        0.000000       -0.115367         3
        17        16        15        38     9      180.000000        0.239543         4
        17        16        18        39     9        0.000000        0.138199         1
        17        16        18        39     9      180.000000       13.815334         2
        17        16        18        39     9        0.000000       -0.095172         3
        17        16        18        39     9      180.000000        0.212290         4
        18        12        11        19     9        0.000000        0.051085         1
        18        12        11        19     9      180.000000        3.461496         2
        18        12        11        19     9        0.000000        0.007988         3
        18        12        11        19     9      180.000000       -0.012872         4
        18        12        13        36     9        0.000000       -0.117209         1
        18        12        13        36     9      180.000000       14.303308         2
        18        12        13        36     9        0.000000       -0.626107         3
        18        12        13        36     9      180.000000        0.027460         4
        18        16        15        38     9        0.000000        0.011133         1
        18        16        15        38     9      180.000000       13.432437         2
        18        16        15        38     9        0.000000       -0.533136         3
        18        16        15        38     9      180.000000        0.083311         4
        19         7         6        20     9        0.000000       -0.129259         1
        19         7         6        20     9      180.000000        0.822040         2
        19         7         6        20     9        0.000000        0.240653         3
        19         7         6        20     9      180.000000       -0.023465         4
        19         7         6        26     9        0.000000       -0.581828         1
        19         7         6        26     9      180.000000       -0.454741         2
        19         7         6        26     9        0.000000        0.159708         3
        19         7         6        26     9      180.000000        0.155102         4
        19         7         8        33     9        0.000000        0.031837         1
        19         7         8        33     9      180.000000       14.527436         2
        19         7         8        33     9        0.000000       -0.660079         3
        19         7         8        33     9      180.000000        0.026841         4
        19        11        10        35     9        0.000000       -0.128523         1
        19        11        10        35     9      180.000000       14.598107         2
        19        11        10        35     9        0.000000       -0.677399         3
        19        11        10        35     9      180.000000        0.050806         4
        20         6         5        32     9        0.000000        0.506400         1
        20         6         5        32     9      180.000000        0.726184         2
        20         6         5        32     9        0.000000        0.261512         3
        20         6         5        32     9      180.000000       -0.003330         4
        20         6        26        27     9        0.000000       -0.453670         1
        20         6        26        27     9      180.000000        1.422940         2
        20         6        26        27     9        0.000000       -0.421504         3
        20         6        26        27     9      180.000000        0.390315         4
        20        21        22        23     9        0.000000        0.745366         1
        20        21        22        23     9      180.000000       -1.351001         2
        20        21        22        23     9        0.000000        0.364366         3
        20        21        22        23     9      180.000000       -0.038881         4
        20        21        22        44     9        0.000000       -0.033517         1
        20        21        22        44     9      180.000000        0.057250         2
        20        21        22        44     9        0.000000        0.320672         3
        20        21        22        44     9      180.000000       -0.011587         4
        20        21        22        45     9        0.000000       -0.033517         1
        20        21        22        45     9      180.000000        0.057250         2
        20        21        22        45     9        0.000000        0.320672         3
        20        21        22        45     9      180.000000       -0.011587         4
        20        25        24        23     9        0.000000        0.745366         1
        20        25        24        23     9      180.000000       -1.351001         2
        20        25        24        23     9        0.000000        0.364366         3
        20        25        24        23     9      180.000000       -0.038881         4
        20        25        24        48     9        0.000000       -0.033517         1
        20        25        24        48     9      180.000000        0.057250         2
        20        25        24        48     9        0.000000        0.320672         3
        20        25        24        48     9      180.000000       -0.011587         4
        20        25        24        49     9        0.000000       -0.033517         1
        20        25        24        49     9      180.000000        0.057250         2
        20        25        24        49     9        0.000000        0.320672         3
        20        25        24        49     9      180.000000       -0.011587         4
        21        20         6        26     9        0.000000       -0.000098         1
        21        20         6        26     9      180.000000       -0.222230         2
        21        20         6        26     9        0.000000        0.551157         3
        21        20         6        26     9      180.000000       -0.054944         4
        21        20        25        24     9        0.000000        1.582924         1
        21        20        25        24     9      180.000000       -1.504367         2
        21        20        25        24     9        0.000000        0.231081         3
        21        20        25        24     9      180.000000       -0.105091         4
        21        20        25        50     9        0.000000       -0.041674         1
        21        20        25        50     9      180.000000        0.024868         2
        21        20        25        50     9        0.000000        0.350803         3
        21        20        25        50     9      180.000000        0.005719         4
        21        20        25        51     9        0.000000       -0.041674         1
        21        20        25        51     9      180.000000        0.024868         2
        21        20        25        51     9        0.000000        0.350803         3
        21        20        25        51     9      180.000000        0.005719         4
        21        22        23        24     9        0.000000        0.060468         1
        21        22        23        24     9      180.000000       -0.744456         2
        21        22        23        24     9        0.000000        0.374170         3
        21        22        23        24     9      180.000000       -0.045625         4
        21        22        23        46     9        0.000000       -0.022850         1
        21        22        23        46     9      180.000000        0.020999         2
        21        22        23        46     9        0.000000        0.348810         3
        21        22        23        46     9      180.000000        0.008441         4
        21        22        23        47     9        0.000000       -0.022850         1
        21        22        23        47     9      180.000000        0.020999         2
        21        22        23        47     9        0.000000        0.348810         3
        21        22        23        47     9      180.000000        0.008441         4
        22        21        20        25     9        0.000000        1.582924         1
        22        21        20        25     9      180.000000       -1.504367         2
        22        21        20        25     9        0.000000        0.231081         3
        22        21        20        25     9      180.000000       -0.105091         4
        22        21        20        41     9        0.000000       -0.802909         1
        22        21        20        41     9      180.000000        0.114295         2
        22        21        20        41     9        0.000000        0.234837         3
        22        21        20        41     9      180.000000        0.041800         4
        22        23        24        25     9        0.000000        0.060468         1
        22        23        24        25     9      180.000000       -0.744456         2
        22        23        24        25     9        0.000000        0.374170         3
        22        23        24        25     9      180.000000       -0.045625         4
        22        23        24        48     9        0.000000       -0.039098         1
        22        23        24        48     9      180.000000        0.032059         2
        22        23        24        48     9        0.000000        0.297145         3
        22        23        24        48     9      180.000000        0.002801         4
        22        23        24        49     9        0.000000       -0.039098         1
        22        23        24        49     9      180.000000        0.032059         2
        22        23        24        49     9        0.000000        0.297145         3
        22        23        24        49     9      180.000000        0.002801         4
        23        22        21        42     9        0.000000       -0.027228         1
        23        22        21        42     9      180.000000        0.049923         2
        23        22        21        42     9        0.000000        0.338399         3
        23        22        21        42     9      180.000000       -0.000378         4
        23        22        21        43     9        0.000000       -0.027228         1
        23        22        21        43     9      180.000000        0.049923         2
        23        22        21        43     9        0.000000        0.338399         3
        23        22        21        43     9      180.000000       -0.000378         4
        23        24        25        50     9        0.000000       -0.027228         1
        23        24        25        50     9      180.000000        0.049923         2
        23        24        25        50     9        0.000000        0.338399         3
        23        24        25        50     9      180.000000       -0.000378         4
        23        24        25        51     9        0.000000       -0.027228         1
        23        24        25        51     9      180.000000        0.049923         2
        23        24        25        51     9        0.000000        0.338399         3
        23        24        25        51     9      180.000000       -0.000378         4
        24        23        22        44     9        0.000000       -0.039098         1
        24        23        22        44     9      180.000000        0.032059         2
        24        23        22        44     9        0.000000        0.297145         3
        24        23        22        44     9      180.000000        0.002801         4
        24        23        22        45     9        0.000000       -0.039098         1
        24        23        22        45     9      180.000000        0.032059         2
        24        23        22        45     9        0.000000        0.297145         3
        24        23        22        45     9      180.000000        0.002801         4
        24        25        20        41     9        0.000000       -0.802909         1
        24        25        20        41     9      180.000000        0.114295         2
        24        25        20        41     9        0.000000        0.234837         3
        24        25        20        41     9      180.000000        0.041800         4
        25        20         6        26     9        0.000000       -0.000098         1
        25        20         6        26     9      180.000000       -0.222230         2
        25        20         6        26     9        0.000000        0.551157         3
        25        20         6        26     9      180.000000       -0.054944         4
        25        20        21        42     9        0.000000       -0.041674         1
        25        20        21        42     9      180.000000        0.024868         2
        25        20        21        42     9        0.000000        0.350803         3
        25        20        21        42     9      180.000000        0.005719         4
        25        20        21        43     9        0.000000       -0.041674         1
        25        20        21        43     9      180.000000        0.024868         2
        25        20        21        43     9        0.000000        0.350803         3
        25        20        21        43     9      180.000000        0.005719         4
        25        24        23        46     9        0.000000       -0.022850         1
        25        24        23        46     9      180.000000        0.020999         2
        25        24        23        46     9        0.000000        0.348810         3
        25        24        23        46     9      180.000000        0.008441         4
        25        24        23        47     9        0.000000       -0.022850         1
        25        24        23        47     9      180.000000        0.020999         2
        25        24        23        47     9        0.000000        0.348810         3
        25        24        23        47     9      180.000000        0.008441         4
        26         2         1        28     9        0.000000       -0.088705         1
        26         2         1        28     9      180.000000       -0.080204         2
        26         2         1        28     9        0.000000       -0.306065         3
        26         2         1        28     9      180.000000        0.053787         4
        26         2         1        29     9        0.000000       -0.088705         1
        26         2         1        29     9      180.000000       -0.080204         2
        26         2         1        29     9        0.000000       -0.306065         3
        26         2         1        29     9      180.000000        0.053787         4
        26         2         1        30     9        0.000000       -0.088705         1
        26         2         1        30     9      180.000000       -0.080204         2
        26         2         1        30     9        0.000000       -0.306065         3
        26         2         1        30     9      180.000000        0.053787         4
        26         6         5        32     9        0.000000       -0.204558         1
        26         6         5        32     9      180.000000       -0.851872         2
        26         6         5        32     9        0.000000        0.039419         3
        26         6         5        32     9      180.000000        0.197717         4
        26         6        20        41     9        0.000000        0.070435         1
        26         6        20        41     9      180.000000        0.059626         2
        26         6        20        41     9        0.000000        0.536087         3
        26         6        20        41     9      180.000000       -0.009223         4
        33         8         9        34     9        0.000000       -0.122804         1
        33         8         9        34     9      180.000000       11.934930         2
        33         8         9        34     9        0.000000       -0.707410         3
        33         8         9        34     9      180.000000        0.282715         4
        34         9        10        35     9        0.000000       -0.168314         1
        34         9        10        35     9      180.000000       11.947351         2
        34         9        10        35     9        0.000000       -0.734367         3
        34         9        10        35     9      180.000000        0.319771         4
        36        13        14        37     9        0.000000       -0.202412         1
        36        13        14        37     9      180.000000       12.044167         2
        36        13        14        37     9        0.000000       -0.720040         3
        36        13        14        37     9      180.000000        0.322236         4
        37        14        15        38     9        0.000000       -0.177599         1
        37        14        15        38     9      180.000000       11.407348         2
        37        14        15        38     9        0.000000       -0.617576         3
        37        14        15        38     9      180.000000        0.288707         4
        41        20        21        42     9        0.000000        0.197189         1
        41        20        21        42     9      180.000000        0.032099         2
        41        20        21        42     9        0.000000        0.412721         3
        41        20        21        42     9      180.000000        0.009560         4
        41        20        21        43     9        0.000000        0.197189         1
        41        20        21        43     9      180.000000        0.032099         2
        41        20        21        43     9        0.000000        0.412721         3
        41        20        21        43     9      180.000000        0.009560         4
        41        20        25        50     9        0.000000        0.197189         1
        41        20        25        50     9      180.000000        0.032099         2
        41        20        25        50     9        0.000000        0.412721         3
        41        20        25        50     9      180.000000        0.009560         4
        41        20        25        51     9        0.000000        0.197189         1
        41        20        25        51     9      180.000000        0.032099         2
        41        20        25        51     9        0.000000        0.412721         3
        41        20        25        51     9      180.000000        0.009560         4
        42        21        22        44     9        0.000000        0.003000         1
        42        21        22        44     9      180.000000       -0.005281         2
        42        21        22        44     9        0.000000        0.330895         3
        42        21        22        44     9      180.000000        0.022456         4
        42        21        22        45     9        0.000000        0.003000         1
        42        21        22        45     9      180.000000       -0.005281         2
        42        21        22        45     9        0.000000        0.330895         3
        42        21        22        45     9      180.000000        0.022456         4
        43        21        22        44     9        0.000000        0.003000         1
        43        21        22        44     9      180.000000       -0.005281         2
        43        21        22        44     9        0.000000        0.330895         3
        43        21        22        44     9      180.000000        0.022456         4
        43        21        22        45     9        0.000000        0.003000         1
        43        21        22        45     9      180.000000       -0.005281         2
        43        21        22        45     9        0.000000        0.330895         3
        43        21        22        45     9      180.000000        0.022456         4
        44        22        23        46     9        0.000000       -0.013762         1
        44        22        23        46     9      180.000000        0.002947         2
        44        22        23        46     9        0.000000        0.349068         3
        44        22        23        46     9      180.000000        0.005580         4
        44        22        23        47     9        0.000000       -0.013762         1
        44        22        23        47     9      180.000000        0.002947         2
        44        22        23        47     9        0.000000        0.349068         3
        44        22        23        47     9      180.000000        0.005580         4
        45        22        23        46     9        0.000000       -0.013762         1
        45        22        23        46     9      180.000000        0.002947         2
        45        22        23        46     9        0.000000        0.349068         3
        45        22        23        46     9      180.000000        0.005580         4
        45        22        23        47     9        0.000000       -0.013762         1
        45        22        23        47     9      180.000000        0.002947         2
        45        22        23        47     9        0.000000        0.349068         3
        45        22        23        47     9      180.000000        0.005580         4
        46        23        24        48     9        0.000000       -0.013762         1
        46        23        24        48     9      180.000000        0.002947         2
        46        23        24        48     9        0.000000        0.349068         3
        46        23        24        48     9      180.000000        0.005580         4
        46        23        24        49     9        0.000000       -0.013762         1
        46        23        24        49     9      180.000000        0.002947         2
        46        23        24        49     9        0.000000        0.349068         3
        46        23        24        49     9      180.000000        0.005580         4
        47        23        24        48     9        0.000000       -0.013762         1
        47        23        24        48     9      180.000000        0.002947         2
        47        23        24        48     9        0.000000        0.349068         3
        47        23        24        48     9      180.000000        0.005580         4
        47        23        24        49     9        0.000000       -0.013762         1
        47        23        24        49     9      180.000000        0.002947         2
        47        23        24        49     9        0.000000        0.349068         3
        47        23        24        49     9      180.000000        0.005580         4
        48        24        25        50     9        0.000000        0.003000         1
        48        24        25        50     9      180.000000       -0.005281         2
        48        24        25        50     9        0.000000        0.330895         3
        48        24        25        50     9      180.000000        0.022456         4
        48        24        25        51     9        0.000000        0.003000         1
        48        24        25        51     9      180.000000       -0.005281         2
        48        24        25        51     9        0.000000        0.330895         3
        48        24        25        51     9      180.000000        0.022456         4
        49        24        25        50     9        0.000000        0.003000         1
        49        24        25        50     9      180.000000       -0.005281         2
        49        24        25        50     9        0.000000        0.330895         3
        49        24        25        50     9      180.000000        0.022456         4
        49        24        25        51     9        0.000000        0.003000         1
        49        24        25        51     9      180.000000       -0.005281         2
        49        24        25        51     9        0.000000        0.330895         3
        49        24        25        51     9      180.000000        0.022456         4

[ dihedrals ] ; impropers
;       ai        aj        ak        al funct           phase               k        pn
         3         2         4         5     4      180.000000       11.088947         2
         3         4         5         2     4      180.000000       11.088947         2
         3         5         2         4     4      180.000000       11.088947         2
        26         2         6        27     4      180.000000       27.893333         2
        26         6        27         2     4      180.000000       27.893333         2
        26        27         2         6     4      180.000000       27.893333         2

[ pairs ]
;       ai        aj funct
         1         4     1
         1         5     1
         1         6     1
         1        27     1
         2         7     1
         2        20     1
         2        31     1
         2        32     1
         2        52     1
         3         7     1
         3        20     1
         3        27     1
         3        28     1
         3        29     1
         3        30     1
         4         6     1
         4        26     1
         4        32     1
         5         8     1
         5        19     1
         5        21     1
         5        25     1
         5        27     1
         5        31     1
         5        41     1
         5        52     1
         6         9     1
         6        11     1
         6        22     1
         6        24     1
         6        33     1
         6        40     1
         6        42     1
         6        43     1
         6        50     1
         6        51     1
         7        10     1
         7        12     1
         7        21     1
         7        25     1
         7        27     1
         7        32     1
         7        34     1
         7        41     1
         8        11     1
         8        20     1
         8        26     1
         8        35     1
         8        40     1
         9        12     1
         9        19     1
        10        13     1
        10        18     1
        10        33     1
        10        40     1
        11        14     1
        11        16     1
        11        34     1
        11        36     1
        11        39     1
        12        15     1
        12        17     1
        12        35     1
        12        37     1
        12        40     1
        13        16     1
        13        19     1
        13        38     1
        13        39     1
        14        17     1
        14        18     1
        15        36     1
        15        39     1
        16        37     1
        17        38     1
        17        39     1
        18        19     1
        18        36     1
        18        38     1
        19        20     1
        19        26     1
        19        33     1
        19        35     1
        20        23     1
        20        27     1
        20        32     1
        20        44     1
        20        45     1
        20        48     1
        20        49     1
        21        24     1
        21        26     1
        21        46     1
        21        47     1
        21        50     1
        21        51     1
        22        25     1
        22        41     1
        22        48     1
        22        49     1
        23        42     1
        23        43     1
        23        50     1
        23        51     1
        24        41     1
        24        44     1
        24        45     1
        25        26     1
        25        42     1
        25        43     1
        25        46     1
        25        47     1
        26        28     1
        26        29     1
        26        30     1
        26        32     1
        26        41     1
        33        34     1
        34        35     1
        36        37     1
        37        38     1
        41        42     1
        41        43     1
        41        50     1
        41        51     1
        42        44     1
        42        45     1
        43        44     1
        43        45     1
        44        46     1
        44        47     1
        45        46     1
        45        47     1
        46        48     1
        46        49     1
        47        48     1
        47        49     1
        48        50     1
        48        51     1
        49        50     1
        49        51     1
