; ITP file created by ByteFF-ML, 2026-02-21 08:13:50.446041

[ atomtypes ]
;name           bonded.type        at.num        mass        charge   ptype           sigma         epsilon
 c0bf                                   6      0.0000       0.00000       A     3.39908e-01     4.52565e-01
 n1bf                                   7      0.0000       0.00000       A     3.18266e-01     7.05519e-01
 c2bf                                   6      0.0000       0.00000       A     3.31199e-01     4.10257e-01
 n3bf                                   7      0.0000       0.00000       A     3.36722e-01     4.77464e-01
 n4bf                                   7      0.0000       0.00000       A     3.26857e-01     6.48031e-01
 c5bf                                   6      0.0000       0.00000       A     3.39762e-01     4.46850e-01
 c6bf                                   6      0.0000       0.00000       A     3.31693e-01     4.15784e-01
 c7bf                                   6      0.0000       0.00000       A     3.31483e-01     4.13867e-01
 c8bf                                   6      0.0000       0.00000       A     3.31498e-01     4.13395e-01
 c9bf                                   6      0.0000       0.00000       A     3.31500e-01     4.12376e-01
 c10bf                                  6      0.0000       0.00000       A     3.31401e-01     4.12317e-01
 c11bf                                  6      0.0000       0.00000       A     3.31338e-01     4.14041e-01
 c12bf                                  6      0.0000       0.00000       A     3.31495e-01     4.12332e-01
 c13bf                                  6      0.0000       0.00000       A     3.31470e-01     4.12993e-01
 c14bf                                  6      0.0000       0.00000       A     3.31492e-01     4.12697e-01
 c15bf                                  6      0.0000       0.00000       A     3.31464e-01     4.12774e-01
 cl16bf                                17      0.0000       0.00000       A     3.46727e-01     1.10410e+00
 c17bf                                  6      0.0000       0.00000       A     3.31525e-01     4.12943e-01
 c18bf                                  6      0.0000       0.00000       A     3.31594e-01     4.15203e-01
 c19bf                                  6      0.0000       0.00000       A     3.39273e-01     4.47883e-01
 c20bf                                  6      0.0000       0.00000       A     3.39760e-01     4.50291e-01
 c21bf                                  6      0.0000       0.00000       A     3.39899e-01     4.50401e-01
 c22bf                                  6      0.0000       0.00000       A     3.39899e-01     4.50401e-01
 c23bf                                  6      0.0000       0.00000       A     3.39760e-01     4.50291e-01
 c24bf                                  6      0.0000       0.00000       A     3.31518e-01     4.16817e-01
 o25bf                                  8      0.0000       0.00000       A     3.04393e-01     6.13917e-01
 h26bf                                  1      0.0000       0.00000       A     2.42205e-01     8.61909e-02
 h27bf                                  1      0.0000       0.00000       A     2.42205e-01     8.61909e-02
 h28bf                                  1      0.0000       0.00000       A     2.42205e-01     8.61909e-02
 h29bf                                  1      0.0000       0.00000       A     1.10384e-01     3.90095e-02
 h30bf                                  1      0.0000       0.00000       A     1.10412e-01     4.04141e-02
 h31bf                                  1      0.0000       0.00000       A     2.62582e-01     6.77388e-02
 h32bf                                  1      0.0000       0.00000       A     2.62513e-01     6.74259e-02
 h33bf                                  1      0.0000       0.00000       A     2.62472e-01     6.74738e-02
 h34bf                                  1      0.0000       0.00000       A     2.62472e-01     6.74738e-02
 h35bf                                  1      0.0000       0.00000       A     2.62502e-01     6.73461e-02
 h36bf                                  1      0.0000       0.00000       A     2.62496e-01     6.71211e-02
 h37bf                                  1      0.0000       0.00000       A     2.62435e-01     6.74259e-02
 h38bf                                  1      0.0000       0.00000       A     2.62575e-01     6.76957e-02
 h39bf                                  1      0.0000       0.00000       A     2.60072e-01     8.65405e-02
 h40bf                                  1      0.0000       0.00000       A     2.60164e-01     8.67065e-02
 h41bf                                  1      0.0000       0.00000       A     2.60164e-01     8.67065e-02
 h42bf                                  1      0.0000       0.00000       A     2.60155e-01     8.70927e-02
 h43bf                                  1      0.0000       0.00000       A     2.60155e-01     8.70927e-02
 h44bf                                  1      0.0000       0.00000       A     2.60155e-01     8.70927e-02
 h45bf                                  1      0.0000       0.00000       A     2.60155e-01     8.70927e-02
 h46bf                                  1      0.0000       0.00000       A     2.60164e-01     8.67065e-02
 h47bf                                  1      0.0000       0.00000       A     2.60164e-01     8.67065e-02
 h48bf                                  1      0.0000       0.00000       A     1.10384e-01     3.90095e-02

[ moleculetype ]
;name             nrexcl
 CAT-13f               3

[ atoms ]
;       nr            type      resi   res      atom      cgnr      charge          mass ; qtot
         1            c0bf         1   UNL        c0         1     0.07228       12.0110 ; qtot    0.072
         2            n1bf         1   UNL        n1         2    -0.59500       14.0070 ; qtot   -0.523
         3            c2bf         1   UNL        c2         3     0.92998       12.0110 ; qtot    0.407
         4            n3bf         1   UNL        n3         4    -0.58425       14.0070 ; qtot   -0.177
         5            n4bf         1   UNL        n4         5    -0.60716       14.0070 ; qtot   -0.784
         6            c5bf         1   UNL        c5         6     0.08518       12.0110 ; qtot   -0.699
         7            c6bf         1   UNL        c6         7    -0.12969       12.0110 ; qtot   -0.829
         8            c7bf         1   UNL        c7         8    -0.07532       12.0110 ; qtot   -0.904
         9            c8bf         1   UNL        c8         9    -0.09429       12.0110 ; qtot   -0.998
        10            c9bf         1   UNL        c9        10    -0.09289       12.0110 ; qtot   -1.091
        11           c10bf         1   UNL       c10        11    -0.02638       12.0110 ; qtot   -1.118
        12           c11bf         1   UNL       c11        12    -0.02672       12.0110 ; qtot   -1.144
        13           c12bf         1   UNL       c12        13    -0.10326       12.0110 ; qtot   -1.248
        14           c13bf         1   UNL       c13        14    -0.10402       12.0110 ; qtot   -1.352
        15           c14bf         1   UNL       c14        15    -0.09512       12.0110 ; qtot   -1.447
        16           c15bf         1   UNL       c15        16     0.12011       12.0110 ; qtot   -1.327
        17          cl16bf         1   UNL      cl16        17    -0.20970       35.4530 ; qtot   -1.536
        18           c17bf         1   UNL       c17        18    -0.09584       12.0110 ; qtot   -1.632
        19           c18bf         1   UNL       c18        19    -0.06144       12.0110 ; qtot   -1.694
        20           c19bf         1   UNL       c19        20    -0.06775       12.0110 ; qtot   -1.761
        21           c20bf         1   UNL       c20        21    -0.07299       12.0110 ; qtot   -1.834
        22           c21bf         1   UNL       c21        22    -0.07893       12.0110 ; qtot   -1.913
        23           c22bf         1   UNL       c22        23    -0.07893       12.0110 ; qtot   -1.992
        24           c23bf         1   UNL       c23        24    -0.07299       12.0110 ; qtot   -2.065
        25           c24bf         1   UNL       c24        25     0.54553       12.0110 ; qtot   -1.520
        26           o25bf         1   UNL       o25        26    -0.38506       15.9990 ; qtot   -1.905
        27           h26bf         1   UNL       h26        27     0.08945        1.0080 ; qtot   -1.815
        28           h27bf         1   UNL       h27        28     0.08945        1.0080 ; qtot   -1.726
        29           h28bf         1   UNL       h28        29     0.08945        1.0080 ; qtot   -1.636
        30           h29bf         1   UNL       h29        30     0.38399        1.0080 ; qtot   -1.252
        31           h30bf         1   UNL       h30        31     0.41305        1.0080 ; qtot   -0.839
        32           h31bf         1   UNL       h31        32     0.12966        1.0080 ; qtot   -0.710
        33           h32bf         1   UNL       h32        33     0.12080        1.0080 ; qtot   -0.589
        34           h33bf         1   UNL       h33        34     0.11650        1.0080 ; qtot   -0.472
        35           h34bf         1   UNL       h34        35     0.11993        1.0080 ; qtot   -0.352
        36           h35bf         1   UNL       h35        36     0.12261        1.0080 ; qtot   -0.230
        37           h36bf         1   UNL       h36        37     0.13516        1.0080 ; qtot   -0.095
        38           h37bf         1   UNL       h37        38     0.13341        1.0080 ; qtot    0.039
        39           h38bf         1   UNL       h38        39     0.13083        1.0080 ; qtot    0.170
        40           h39bf         1   UNL       h39        40     0.07367        1.0080 ; qtot    0.243
        41           h40bf         1   UNL       h40        41     0.05064        1.0080 ; qtot    0.294
        42           h41bf         1   UNL       h41        42     0.05064        1.0080 ; qtot    0.345
        43           h42bf         1   UNL       h42        43     0.04254        1.0080 ; qtot    0.387
        44           h43bf         1   UNL       h43        44     0.04254        1.0080 ; qtot    0.430
        45           h44bf         1   UNL       h44        45     0.04254        1.0080 ; qtot    0.472
        46           h45bf         1   UNL       h45        46     0.04254        1.0080 ; qtot    0.515
        47           h46bf         1   UNL       h46        47     0.05064        1.0080 ; qtot    0.565
        48           h47bf         1   UNL       h47        48     0.05064        1.0080 ; qtot    0.616
        49           h48bf         1   UNL       h48        49     0.38397        1.0080 ; qtot    1.000

[ bonds ]
;       ai        aj funct               r               k
         1         2     1        0.146772   194626.686719
         1        27     1        0.109020   312404.141602
         1        28     1        0.109020   312404.141602
         1        29     1        0.109020   312404.141602
         2         3     1        0.135560   306506.550488
         2        25     1        0.142397   148712.368604
         3         4     1        0.133040   418655.856299
         3         5     1        0.133351   385364.250439
         4        30     1        0.101329   425104.359473
         4        49     1        0.101329   425104.359473
         5         6     1        0.148684   143599.852075
         5        31     1        0.101341   424780.548926
         6         7     1        0.152323   165951.615649
         6        20     1        0.155417   132871.010156
         6        25     1        0.154494   127345.162744
         7         8     1        0.140115   292486.268848
         7        19     1        0.139921   295717.453760
         8         9     1        0.139642   314956.345850
         8        32     1        0.108528   321174.453223
         9        10     1        0.139594   315747.076904
         9        33     1        0.108611   320119.336475
        10        11     1        0.140532   285713.240088
        10        34     1        0.108587   318592.753613
        11        12     1        0.148302   214197.880444
        11        19     1        0.140372   287414.496777
        12        13     1        0.140642   283730.615527
        12        18     1        0.140548   284644.231152
        13        14     1        0.139639   316467.172314
        13        35     1        0.108557   319942.823975
        14        15     1        0.139818   306197.015186
        14        36     1        0.108593   321221.875635
        15        16     1        0.139667   296743.126221
        15        37     1        0.108450   326068.844531
        16        17     1        0.175898   146278.069189
        16        18     1        0.139434   307507.503027
        18        38     1        0.108450   323511.456250
        19        39     1        0.108507   320020.635547
        20        21     1        0.154881   154879.184692
        20        24     1        0.154881   154879.184692
        20        40     1        0.109507   300721.603564
        21        22     1        0.154564   165487.797900
        21        41     1        0.109376   302623.709619
        21        42     1        0.109376   302623.709619
        22        23     1        0.154938   162167.897070
        22        43     1        0.109413   302059.237354
        22        44     1        0.109413   302059.237354
        23        24     1        0.154564   165487.797900
        23        45     1        0.109413   302059.237354
        23        46     1        0.109413   302059.237354
        24        47     1        0.109376   302623.709619
        24        48     1        0.109376   302623.709619
        25        26     1        0.120409   715451.640039

[ angles ]
;       ai        aj        ak funct           theta             cth
         1         2         3     1      126.634109      466.144435
         1         2        25     1      123.309616      530.833604
         2         1        27     1      109.238968      484.753231
         2         1        28     1      109.238968      484.753231
         2         1        29     1      109.238968      484.753231
         2         3         4     1      123.930618      626.212824
         2         3         5     1      111.268127      589.005639
         2        25         6     1      106.433983      167.360000
         2        25        26     1      124.471092      650.394552
         3         2        25     1      109.791336      840.898004
         3         4        30     1      121.333107      450.540336
         3         4        49     1      121.333107      450.540336
         3         5         6     1      111.973473      624.703645
         3         5        31     1      123.562607      426.940056
         4         3         5     1      125.417282      613.697853
         5         6         7     1      110.805016      610.915521
         5         6        20     1      110.251816      587.499460
         5         6        25     1      100.286873      346.687296
         6         5        31     1      121.469872      361.836867
         6         7         8     1      120.211815      486.505843
         6         7        19     1      120.022110      444.310207
         6        20        21     1      114.341286      547.479298
         6        20        24     1      114.341286      547.479298
         6        20        40     1      105.224167      487.244216
         6        25        26     1      127.990013      364.701747
         7         6        20     1      114.387794      523.206340
         7         6        25     1      111.798683      605.839191
         7         8         9     1      119.753052      674.745718
         7         8        32     1      120.536888      405.499642
         7        19        11     1      121.233109      662.488288
         7        19        39     1      119.884743      403.997581
         8         7        19     1      119.516281      688.380491
         8         9        10     1      120.358536      725.961986
         8         9        33     1      119.818871      431.480810
         9         8        32     1      119.602318      424.286080
         9        10        11     1      120.443321      706.492303
         9        10        34     1      119.753761      429.297642
        10         9        33     1      119.790123      436.257526
        10        11        12     1      120.862061      513.362870
        10        11        19     1      118.302773      674.457148
        11        10        34     1      119.768105      427.243278
        11        12        13     1      120.942307      503.107358
        11        12        18     1      120.423950      481.499069
        11        19        39     1      118.847435      418.388093
        12        11        19     1      120.853882      418.466365
        12        13        14     1      120.709496      710.226339
        12        13        35     1      119.625290      429.265114
        12        18        16     1      119.954468      654.295153
        12        18        38     1      120.525940      413.949137
        13        12        18     1      118.518814      610.093928
        13        14        15     1      120.716507      706.259979
        13        14        36     1      119.854904      434.295574
        14        13        35     1      119.665451      434.119208
        14        15        16     1      118.458839      608.116654
        14        15        37     1      121.243332      419.806776
        15        14        36     1      119.403748      439.510571
        15        16        17     1      119.263100      362.742700
        15        16        18     1      121.578903      646.790308
        16        15        37     1      120.373581      408.925573
        16        18        38     1      119.578125      413.311731
        17        16        18     1      119.060081      368.288051
        20         6        25     1      110.939842      645.726368
        20        21        22     1      104.752159      478.038663
        20        21        41     1      111.000992      470.930089
        20        21        42     1      111.000992      470.930153
        20        24        23     1      104.752174      478.038663
        20        24        47     1      111.000992      470.930089
        20        24        48     1      111.000992      470.930153
        21        20        24     1      104.142929      435.808967
        21        20        40     1      108.798660      462.511973
        21        22        23     1      104.983444      489.085282
        21        22        43     1      111.094826      472.642768
        21        22        44     1      111.094826      472.642768
        22        21        41     1      111.370712      467.228741
        22        21        42     1      111.370712      467.228741
        22        23        24     1      104.983444      489.085282
        22        23        45     1      111.281509      465.409732
        22        23        46     1      111.281509      465.409732
        23        22        43     1      111.281509      465.409732
        23        22        44     1      111.281509      465.409732
        23        24        47     1      111.370712      467.228741
        23        24        48     1      111.370712      467.228741
        24        20        40     1      108.798660      462.511973
        24        23        45     1      111.094826      472.642768
        24        23        46     1      111.094826      472.642768
        27         1        28     1      109.818115      349.361734
        27         1        29     1      109.818115      349.361734
        28         1        29     1      109.818115      349.361734
        30         4        49     1      117.455788      314.063511
        41        21        42     1      106.961891      362.257750
        43        22        44     1      106.938889      360.534506
        45        23        46     1      106.938889      360.534506
        47        24        48     1      106.961891      362.257750

[ dihedrals ] ; propers for gromacs 4.5 or higher, use funct 9
;       ai        aj        ak        al funct           phase               k        pn
         1         2         3         4     9        0.000000        1.672977         1
         1         2         3         4     9      180.000000        7.624403         2
         1         2         3         4     9        0.000000       -0.078010         3
         1         2         3         4     9      180.000000       -0.106635         4
         1         2         3         5     9        0.000000       -2.650110         1
         1         2         3         5     9      180.000000        5.729475         2
         1         2         3         5     9        0.000000       -0.232415         3
         1         2         3         5     9      180.000000        0.075303         4
         1         2        25         6     9        0.000000       -0.761594         1
         1         2        25         6     9      180.000000        5.893982         2
         1         2        25         6     9        0.000000        0.262837         3
         1         2        25         6     9      180.000000       -0.164045         4
         1         2        25        26     9        0.000000       -0.385805         1
         1         2        25        26     9      180.000000        9.340609         2
         1         2        25        26     9        0.000000       -0.379670         3
         1         2        25        26     9      180.000000        0.241072         4
         2         3         4        30     9        0.000000       -0.909993         1
         2         3         4        30     9      180.000000        6.156880         2
         2         3         4        30     9        0.000000        0.279117         3
         2         3         4        30     9      180.000000       -0.657642         4
         2         3         4        49     9        0.000000       -0.909994         1
         2         3         4        49     9      180.000000        6.156879         2
         2         3         4        49     9        0.000000        0.279117         3
         2         3         4        49     9      180.000000       -0.657641         4
         2         3         5         6     9        0.000000       -1.456564         1
         2         3         5         6     9      180.000000       22.605918         2
         2         3         5         6     9        0.000000       -1.608185         3
         2         3         5         6     9      180.000000       -2.612216         4
         2         3         5        31     9        0.000000       -0.335270         1
         2         3         5        31     9      180.000000        8.906007         2
         2         3         5        31     9        0.000000       -0.008314         3
         2         3         5        31     9      180.000000       -0.798698         4
         2        25         6         5     9        0.000000        0.495449         1
         2        25         6         5     9      180.000000        8.489725         2
         2        25         6         5     9        0.000000       -0.343994         3
         2        25         6         5     9      180.000000       -0.398381         4
         2        25         6         7     9        0.000000        0.970180         1
         2        25         6         7     9      180.000000        0.657879         2
         2        25         6         7     9        0.000000        0.326427         3
         2        25         6         7     9      180.000000        0.841819         4
         2        25         6        20     9        0.000000       -1.928971         1
         2        25         6        20     9      180.000000        1.757466         2
         2        25         6        20     9        0.000000        0.170673         3
         2        25         6        20     9      180.000000        0.598283         4
         3         2         1        27     9        0.000000        0.016470         1
         3         2         1        27     9      180.000000       -0.000986         2
         3         2         1        27     9        0.000000        0.180267         3
         3         2         1        27     9      180.000000       -0.012837         4
         3         2         1        28     9        0.000000        0.016470         1
         3         2         1        28     9      180.000000       -0.000986         2
         3         2         1        28     9        0.000000        0.180267         3
         3         2         1        28     9      180.000000       -0.012837         4
         3         2         1        29     9        0.000000        0.016470         1
         3         2         1        29     9      180.000000       -0.000986         2
         3         2         1        29     9        0.000000        0.180267         3
         3         2         1        29     9      180.000000       -0.012837         4
         3         2        25         6     9        0.000000       -3.056116         1
         3         2        25         6     9      180.000000       11.559101         2
         3         2        25         6     9        0.000000       -1.518272         3
         3         2        25         6     9      180.000000       -0.461361         4
         3         2        25        26     9        0.000000        1.713517         1
         3         2        25        26     9      180.000000       17.274789         2
         3         2        25        26     9        0.000000       -0.576324         3
         3         2        25        26     9      180.000000       -0.875992         4
         3         5         6         7     9        0.000000        0.131035         1
         3         5         6         7     9      180.000000        0.784788         2
         3         5         6         7     9        0.000000        0.300380         3
         3         5         6         7     9      180.000000        0.243457         4
         3         5         6        20     9        0.000000       -2.955970         1
         3         5         6        20     9      180.000000        1.734228         2
         3         5         6        20     9        0.000000        0.222847         3
         3         5         6        20     9      180.000000        0.193682         4
         3         5         6        25     9        0.000000       -2.122814         1
         3         5         6        25     9      180.000000        6.720177         2
         3         5         6        25     9        0.000000       -0.346477         3
         3         5         6        25     9      180.000000       -1.763372         4
         4         3         2        25     9        0.000000        1.511552         1
         4         3         2        25     9      180.000000       13.188790         2
         4         3         2        25     9        0.000000       -0.228089         3
         4         3         2        25     9      180.000000       -0.808489         4
         4         3         5         6     9        0.000000        2.248191         1
         4         3         5         6     9      180.000000       17.689306         2
         4         3         5         6     9        0.000000        0.832088         3
         4         3         5         6     9      180.000000       -1.902442         4
         4         3         5        31     9        0.000000       -0.778166         1
         4         3         5        31     9      180.000000        7.926652         2
         4         3         5        31     9        0.000000        0.391277         3
         4         3         5        31     9      180.000000       -0.419703         4
         5         3         2        25     9        0.000000       -1.360123         1
         5         3         2        25     9      180.000000       15.035960         2
         5         3         2        25     9        0.000000       -2.827214         3
         5         3         2        25     9      180.000000       -1.326264         4
         5         3         4        30     9        0.000000       -1.754381         1
         5         3         4        30     9      180.000000        6.422050         2
         5         3         4        30     9        0.000000       -0.088402         3
         5         3         4        30     9      180.000000       -0.481717         4
         5         3         4        49     9        0.000000       -1.754380         1
         5         3         4        49     9      180.000000        6.422051         2
         5         3         4        49     9        0.000000       -0.088402         3
         5         3         4        49     9      180.000000       -0.481716         4
         5         6         7         8     9        0.000000       -0.372881         1
         5         6         7         8     9      180.000000        1.372085         2
         5         6         7         8     9        0.000000        0.204923         3
         5         6         7         8     9      180.000000        0.165597         4
         5         6         7        19     9        0.000000       -0.222771         1
         5         6         7        19     9      180.000000        1.453557         2
         5         6         7        19     9        0.000000        0.124365         3
         5         6         7        19     9      180.000000        0.168872         4
         5         6        20        21     9        0.000000       -0.066310         1
         5         6        20        21     9      180.000000       -0.398280         2
         5         6        20        21     9        0.000000        0.701917         3
         5         6        20        21     9      180.000000       -0.005142         4
         5         6        20        24     9        0.000000       -0.066310         1
         5         6        20        24     9      180.000000       -0.398280         2
         5         6        20        24     9        0.000000        0.701917         3
         5         6        20        24     9      180.000000       -0.005142         4
         5         6        20        40     9        0.000000       -0.308757         1
         5         6        20        40     9      180.000000        0.135855         2
         5         6        20        40     9        0.000000        0.800025         3
         5         6        20        40     9      180.000000       -0.118177         4
         5         6        25        26     9        0.000000        7.110970         1
         5         6        25        26     9      180.000000        6.222036         2
         5         6        25        26     9        0.000000        0.004413         3
         5         6        25        26     9      180.000000        0.281570         4
         6         7         8         9     9        0.000000        0.192981         1
         6         7         8         9     9      180.000000       14.580594         2
         6         7         8         9     9        0.000000       -0.123330         3
         6         7         8         9     9      180.000000       -0.130487         4
         6         7         8        32     9        0.000000        0.052419         1
         6         7         8        32     9      180.000000       12.589663         2
         6         7         8        32     9        0.000000       -0.279094         3
         6         7         8        32     9      180.000000        0.186562         4
         6         7        19        11     9        0.000000        0.176639         1
         6         7        19        11     9      180.000000       14.393910         2
         6         7        19        11     9        0.000000       -0.071582         3
         6         7        19        11     9      180.000000       -0.195122         4
         6         7        19        39     9        0.000000        0.063735         1
         6         7        19        39     9      180.000000       12.731545         2
         6         7        19        39     9        0.000000       -0.276401         3
         6         7        19        39     9      180.000000        0.181689         4
         6        20        21        22     9        0.000000       -0.037844         1
         6        20        21        22     9      180.000000       -0.215674         2
         6        20        21        22     9        0.000000        0.126531         3
         6        20        21        22     9      180.000000       -0.058205         4
         6        20        21        41     9        0.000000       -0.041022         1
         6        20        21        41     9      180.000000       -0.080047         2
         6        20        21        41     9        0.000000        0.260973         3
         6        20        21        41     9      180.000000       -0.007975         4
         6        20        21        42     9        0.000000       -0.041022         1
         6        20        21        42     9      180.000000       -0.080047         2
         6        20        21        42     9        0.000000        0.260973         3
         6        20        21        42     9      180.000000       -0.007975         4
         6        20        24        23     9        0.000000       -0.037844         1
         6        20        24        23     9      180.000000       -0.215674         2
         6        20        24        23     9        0.000000        0.126531         3
         6        20        24        23     9      180.000000       -0.058205         4
         6        20        24        47     9        0.000000       -0.041022         1
         6        20        24        47     9      180.000000       -0.080047         2
         6        20        24        47     9        0.000000        0.260973         3
         6        20        24        47     9      180.000000       -0.007975         4
         6        20        24        48     9        0.000000       -0.041022         1
         6        20        24        48     9      180.000000       -0.080047         2
         6        20        24        48     9        0.000000        0.260973         3
         6        20        24        48     9      180.000000       -0.007975         4
         7         6         5        31     9        0.000000        1.058190         1
         7         6         5        31     9      180.000000        0.635640         2
         7         6         5        31     9        0.000000        0.167313         3
         7         6         5        31     9      180.000000       -0.048233         4
         7         6        20        21     9        0.000000        0.393190         1
         7         6        20        21     9      180.000000        0.130738         2
         7         6        20        21     9        0.000000        1.038913         3
         7         6        20        21     9      180.000000        0.066925         4
         7         6        20        24     9        0.000000        0.393190         1
         7         6        20        24     9      180.000000        0.130738         2
         7         6        20        24     9        0.000000        1.038913         3
         7         6        20        24     9      180.000000        0.066925         4
         7         6        20        40     9        0.000000       -0.243199         1
         7         6        20        40     9      180.000000        0.234108         2
         7         6        20        40     9        0.000000        0.826242         3
         7         6        20        40     9      180.000000        0.068779         4
         7         6        25        26     9        0.000000       -0.312049         1
         7         6        25        26     9      180.000000        1.098746         2
         7         6        25        26     9        0.000000       -0.360126         3
         7         6        25        26     9      180.000000        0.427572         4
         7         8         9        10     9        0.000000        0.124903         1
         7         8         9        10     9      180.000000       18.569064         2
         7         8         9        10     9        0.000000       -1.500654         3
         7         8         9        10     9      180.000000       -0.454316         4
         7         8         9        33     9        0.000000        0.046509         1
         7         8         9        33     9      180.000000       15.048550         2
         7         8         9        33     9        0.000000       -0.586211         3
         7         8         9        33     9      180.000000        0.101496         4
         7        19        11        10     9        0.000000       -0.076136         1
         7        19        11        10     9      180.000000       18.734315         2
         7        19        11        10     9        0.000000       -1.529637         3
         7        19        11        10     9      180.000000       -0.491368         4
         7        19        11        12     9        0.000000        0.273075         1
         7        19        11        12     9      180.000000       16.788283         2
         7        19        11        12     9        0.000000       -0.115053         3
         7        19        11        12     9      180.000000       -0.420504         4
         8         7         6        20     9        0.000000       -0.094471         1
         8         7         6        20     9      180.000000        0.720628         2
         8         7         6        20     9        0.000000        0.231375         3
         8         7         6        20     9      180.000000        0.014943         4
         8         7         6        25     9        0.000000       -0.277385         1
         8         7         6        25     9      180.000000       -0.555167         2
         8         7         6        25     9        0.000000        0.210855         3
         8         7         6        25     9      180.000000        0.142944         4
         8         7        19        11     9        0.000000       -0.058872         1
         8         7        19        11     9      180.000000       19.074994         2
         8         7        19        11     9        0.000000       -1.467395         3
         8         7        19        11     9      180.000000       -0.472601         4
         8         7        19        39     9        0.000000        0.059356         1
         8         7        19        39     9      180.000000       14.407364         2
         8         7        19        39     9        0.000000       -0.691445         3
         8         7        19        39     9      180.000000        0.054033         4
         8         9        10        11     9        0.000000       -0.030561         1
         8         9        10        11     9      180.000000       18.779005         2
         8         9        10        11     9        0.000000       -1.502447         3
         8         9        10        11     9      180.000000       -0.332402         4
         8         9        10        34     9        0.000000        0.069688         1
         8         9        10        34     9      180.000000       14.535122         2
         8         9        10        34     9        0.000000       -0.732440         3
         8         9        10        34     9      180.000000        0.174875         4
         9         8         7        19     9        0.000000       -0.125242         1
         9         8         7        19     9      180.000000       19.265297         2
         9         8         7        19     9        0.000000       -1.477526         3
         9         8         7        19     9      180.000000       -0.497879         4
         9        10        11        12     9        0.000000        0.227844         1
         9        10        11        12     9      180.000000       16.143440         2
         9        10        11        12     9        0.000000       -0.176544         3
         9        10        11        12     9      180.000000       -0.241921         4
         9        10        11        19     9        0.000000       -0.199551         1
         9        10        11        19     9      180.000000       18.692542         2
         9        10        11        19     9        0.000000       -1.489114         3
         9        10        11        19     9      180.000000       -0.330556         4
        10         9         8        32     9        0.000000        0.071290         1
        10         9         8        32     9      180.000000       14.718766         2
        10         9         8        32     9        0.000000       -0.640724         3
        10         9         8        32     9      180.000000        0.073104         4
        10        11        12        13     9        0.000000       -0.009166         1
        10        11        12        13     9      180.000000        3.331582         2
        10        11        12        13     9        0.000000        0.048729         3
        10        11        12        13     9      180.000000       -0.020493         4
        10        11        12        18     9        0.000000        0.010234         1
        10        11        12        18     9      180.000000        3.334256         2
        10        11        12        18     9        0.000000        0.014034         3
        10        11        12        18     9      180.000000       -0.011622         4
        10        11        19        39     9        0.000000       -0.124685         1
        10        11        19        39     9      180.000000       14.575023         2
        10        11        19        39     9        0.000000       -0.618624         3
        10        11        19        39     9      180.000000       -0.008197         4
        11        10         9        33     9        0.000000       -0.062797         1
        11        10         9        33     9      180.000000       14.723987         2
        11        10         9        33     9        0.000000       -0.608482         3
        11        10         9        33     9      180.000000        0.113729         4
        11        12        13        14     9        0.000000        0.309701         1
        11        12        13        14     9      180.000000       16.377414         2
        11        12        13        14     9        0.000000       -0.083118         3
        11        12        13        14     9      180.000000       -0.284375         4
        11        12        13        35     9        0.000000       -0.067354         1
        11        12        13        35     9      180.000000       13.392344         2
        11        12        13        35     9        0.000000       -0.191419         3
        11        12        13        35     9      180.000000        0.181068         4
        11        12        18        16     9        0.000000        0.233037         1
        11        12        18        16     9      180.000000       16.718025         2
        11        12        18        16     9        0.000000       -0.162898         3
        11        12        18        16     9      180.000000       -0.417445         4
        11        12        18        38     9        0.000000       -0.086135         1
        11        12        18        38     9      180.000000       13.216122         2
        11        12        18        38     9        0.000000       -0.213241         3
        11        12        18        38     9      180.000000        0.208840         4
        12        11        10        34     9        0.000000       -0.104288         1
        12        11        10        34     9      180.000000       13.352322         2
        12        11        10        34     9        0.000000       -0.224911         3
        12        11        10        34     9      180.000000        0.189015         4
        12        11        19        39     9        0.000000       -0.103433         1
        12        11        19        39     9      180.000000       13.357164         2
        12        11        19        39     9        0.000000       -0.163313         3
        12        11        19        39     9      180.000000        0.166493         4
        12        13        14        15     9        0.000000       -0.027105         1
        12        13        14        15     9      180.000000       18.923034         2
        12        13        14        15     9        0.000000       -1.503937         3
        12        13        14        15     9      180.000000       -0.356268         4
        12        13        14        36     9        0.000000       -0.082647         1
        12        13        14        36     9      180.000000       14.805089         2
        12        13        14        36     9        0.000000       -0.643495         3
        12        13        14        36     9      180.000000        0.073654         4
        12        18        16        15     9        0.000000       -0.008240         1
        12        18        16        15     9      180.000000       17.745278         2
        12        18        16        15     9        0.000000       -1.184654         3
        12        18        16        15     9      180.000000       -0.352119         4
        12        18        16        17     9        0.000000        0.356484         1
        12        18        16        17     9      180.000000       19.187195         2
        12        18        16        17     9        0.000000        0.423572         3
        12        18        16        17     9      180.000000       -0.719313         4
        13        12        11        19     9        0.000000        0.013250         1
        13        12        11        19     9      180.000000        3.445198         2
        13        12        11        19     9        0.000000        0.050976         3
        13        12        11        19     9      180.000000       -0.023854         4
        13        12        18        16     9        0.000000       -0.226810         1
        13        12        18        16     9      180.000000       18.460100         2
        13        12        18        16     9        0.000000       -1.564517         3
        13        12        18        16     9      180.000000       -0.363342         4
        13        12        18        38     9        0.000000       -0.081612         1
        13        12        18        38     9      180.000000       14.063211         2
        13        12        18        38     9        0.000000       -0.651845         3
        13        12        18        38     9      180.000000        0.074764         4
        13        14        15        16     9        0.000000       -0.014672         1
        13        14        15        16     9      180.000000       18.658773         2
        13        14        15        16     9        0.000000       -1.423404         3
        13        14        15        16     9      180.000000       -0.430664         4
        13        14        15        37     9        0.000000        0.015296         1
        13        14        15        37     9      180.000000       13.921456         2
        13        14        15        37     9        0.000000       -0.702882         3
        13        14        15        37     9      180.000000        0.159191         4
        14        13        12        18     9        0.000000       -0.178260         1
        14        13        12        18     9      180.000000       18.281466         2
        14        13        12        18     9        0.000000       -1.464057         3
        14        13        12        18     9      180.000000       -0.353057         4
        14        15        16        17     9        0.000000        0.384560         1
        14        15        16        17     9      180.000000       19.125338         2
        14        15        16        17     9        0.000000        0.328218         3
        14        15        16        17     9      180.000000       -0.554486         4
        14        15        16        18     9        0.000000       -0.060650         1
        14        15        16        18     9      180.000000       17.644798         2
        14        15        16        18     9        0.000000       -1.259503         3
        14        15        16        18     9      180.000000       -0.384797         4
        15        14        13        35     9        0.000000        0.073505         1
        15        14        13        35     9      180.000000       14.891523         2
        15        14        13        35     9        0.000000       -0.707691         3
        15        14        13        35     9      180.000000        0.130543         4
        15        16        18        38     9        0.000000        0.006367         1
        15        16        18        38     9      180.000000       13.721602         2
        15        16        18        38     9        0.000000       -0.619973         3
        15        16        18        38     9      180.000000        0.133122         4
        16        15        14        36     9        0.000000        0.036284         1
        16        15        14        36     9      180.000000       14.441092         2
        16        15        14        36     9        0.000000       -0.533853         3
        16        15        14        36     9      180.000000        0.102825         4
        17        16        15        37     9        0.000000        0.203003         1
        17        16        15        37     9      180.000000       13.237179         2
        17        16        15        37     9        0.000000       -0.115367         3
        17        16        15        37     9      180.000000        0.239543         4
        17        16        18        38     9        0.000000        0.138200         1
        17        16        18        38     9      180.000000       13.815334         2
        17        16        18        38     9        0.000000       -0.095173         3
        17        16        18        38     9      180.000000        0.212289         4
        18        12        11        19     9        0.000000        0.047480         1
        18        12        11        19     9      180.000000        3.461226         2
        18        12        11        19     9        0.000000        0.012276         3
        18        12        11        19     9      180.000000       -0.013168         4
        18        12        13        35     9        0.000000       -0.117209         1
        18        12        13        35     9      180.000000       14.303308         2
        18        12        13        35     9        0.000000       -0.626107         3
        18        12        13        35     9      180.000000        0.027460         4
        18        16        15        37     9        0.000000        0.011133         1
        18        16        15        37     9      180.000000       13.432437         2
        18        16        15        37     9        0.000000       -0.533136         3
        18        16        15        37     9      180.000000        0.083311         4
        19         7         6        20     9        0.000000       -0.276882         1
        19         7         6        20     9      180.000000        0.886565         2
        19         7         6        20     9        0.000000        0.200793         3
        19         7         6        20     9      180.000000        0.001915         4
        19         7         6        25     9        0.000000       -0.607305         1
        19         7         6        25     9      180.000000       -0.432964         2
        19         7         6        25     9        0.000000        0.171380         3
        19         7         6        25     9      180.000000        0.146689         4
        19         7         8        32     9        0.000000        0.061607         1
        19         7         8        32     9      180.000000       14.542692         2
        19         7         8        32     9        0.000000       -0.631615         3
        19         7         8        32     9      180.000000        0.024426         4
        19        11        10        34     9        0.000000       -0.128816         1
        19        11        10        34     9      180.000000       14.600469         2
        19        11        10        34     9        0.000000       -0.675121         3
        19        11        10        34     9      180.000000        0.044798         4
        20         6         5        31     9        0.000000        0.813123         1
        20         6         5        31     9      180.000000        0.788190         2
        20         6         5        31     9        0.000000        0.181074         3
        20         6         5        31     9      180.000000        0.002325         4
        20         6        25        26     9        0.000000       -0.459103         1
        20         6        25        26     9      180.000000        1.512954         2
        20         6        25        26     9        0.000000       -0.537391         3
        20         6        25        26     9      180.000000        0.443280         4
        20        21        22        23     9        0.000000        0.027139         1
        20        21        22        23     9      180.000000        0.268353         2
        20        21        22        23     9        0.000000        0.187982         3
        20        21        22        23     9      180.000000       -0.657697         4
        20        21        22        43     9        0.000000       -0.012266         1
        20        21        22        43     9      180.000000       -0.038860         2
        20        21        22        43     9        0.000000        0.182904         3
        20        21        22        43     9      180.000000        0.034875         4
        20        21        22        44     9        0.000000       -0.012266         1
        20        21        22        44     9      180.000000       -0.038860         2
        20        21        22        44     9        0.000000        0.182904         3
        20        21        22        44     9      180.000000        0.034875         4
        20        24        23        22     9        0.000000        0.027139         1
        20        24        23        22     9      180.000000        0.268353         2
        20        24        23        22     9        0.000000        0.187982         3
        20        24        23        22     9      180.000000       -0.657697         4
        20        24        23        45     9        0.000000       -0.012266         1
        20        24        23        45     9      180.000000       -0.038860         2
        20        24        23        45     9        0.000000        0.182904         3
        20        24        23        45     9      180.000000        0.034875         4
        20        24        23        46     9        0.000000       -0.012266         1
        20        24        23        46     9      180.000000       -0.038860         2
        20        24        23        46     9        0.000000        0.182904         3
        20        24        23        46     9      180.000000        0.034875         4
        21        20         6        25     9        0.000000       -0.035222         1
        21        20         6        25     9      180.000000       -0.406424         2
        21        20         6        25     9        0.000000        0.420420         3
        21        20         6        25     9      180.000000        0.022698         4
        21        20        24        23     9        0.000000       -0.764317         1
        21        20        24        23     9      180.000000        5.903339         2
        21        20        24        23     9        0.000000       -0.240062         3
        21        20        24        23     9      180.000000       -2.656379         4
        21        20        24        47     9        0.000000        0.040813         1
        21        20        24        47     9      180.000000       -0.040294         2
        21        20        24        47     9        0.000000        0.113404         3
        21        20        24        47     9      180.000000        0.057053         4
        21        20        24        48     9        0.000000        0.040813         1
        21        20        24        48     9      180.000000       -0.040294         2
        21        20        24        48     9        0.000000        0.113404         3
        21        20        24        48     9      180.000000        0.057053         4
        21        22        23        24     9        0.000000        0.009142         1
        21        22        23        24     9      180.000000        0.084557         2
        21        22        23        24     9        0.000000        0.130975         3
        21        22        23        24     9      180.000000       -0.199002         4
        21        22        23        45     9        0.000000       -0.030968         1
        21        22        23        45     9      180.000000        0.029445         2
        21        22        23        45     9        0.000000        0.159414         3
        21        22        23        45     9      180.000000        0.039911         4
        21        22        23        46     9        0.000000       -0.030968         1
        21        22        23        46     9      180.000000        0.029445         2
        21        22        23        46     9        0.000000        0.159414         3
        21        22        23        46     9      180.000000        0.039911         4
        22        21        20        24     9        0.000000       -0.764317         1
        22        21        20        24     9      180.000000        5.903339         2
        22        21        20        24     9        0.000000       -0.240062         3
        22        21        20        24     9      180.000000       -2.656379         4
        22        21        20        40     9        0.000000       -0.254907         1
        22        21        20        40     9      180.000000        0.111865         2
        22        21        20        40     9        0.000000        0.157984         3
        22        21        20        40     9      180.000000        0.066001         4
        22        23        24        47     9        0.000000       -0.022597         1
        22        23        24        47     9      180.000000        0.021654         2
        22        23        24        47     9        0.000000        0.173576         3
        22        23        24        47     9      180.000000        0.049974         4
        22        23        24        48     9        0.000000       -0.022597         1
        22        23        24        48     9      180.000000        0.021654         2
        22        23        24        48     9        0.000000        0.173576         3
        22        23        24        48     9      180.000000        0.049974         4
        23        22        21        41     9        0.000000       -0.022597         1
        23        22        21        41     9      180.000000        0.021654         2
        23        22        21        41     9        0.000000        0.173576         3
        23        22        21        41     9      180.000000        0.049974         4
        23        22        21        42     9        0.000000       -0.022597         1
        23        22        21        42     9      180.000000        0.021654         2
        23        22        21        42     9        0.000000        0.173576         3
        23        22        21        42     9      180.000000        0.049974         4
        23        24        20        40     9        0.000000       -0.254907         1
        23        24        20        40     9      180.000000        0.111865         2
        23        24        20        40     9        0.000000        0.157984         3
        23        24        20        40     9      180.000000        0.066001         4
        24        20         6        25     9        0.000000       -0.035222         1
        24        20         6        25     9      180.000000       -0.406424         2
        24        20         6        25     9        0.000000        0.420420         3
        24        20         6        25     9      180.000000        0.022698         4
        24        20        21        41     9        0.000000        0.040813         1
        24        20        21        41     9      180.000000       -0.040294         2
        24        20        21        41     9        0.000000        0.113404         3
        24        20        21        41     9      180.000000        0.057053         4
        24        20        21        42     9        0.000000        0.040813         1
        24        20        21        42     9      180.000000       -0.040294         2
        24        20        21        42     9        0.000000        0.113404         3
        24        20        21        42     9      180.000000        0.057053         4
        24        23        22        43     9        0.000000       -0.030968         1
        24        23        22        43     9      180.000000        0.029445         2
        24        23        22        43     9        0.000000        0.159414         3
        24        23        22        43     9      180.000000        0.039911         4
        24        23        22        44     9        0.000000       -0.030968         1
        24        23        22        44     9      180.000000        0.029445         2
        24        23        22        44     9        0.000000        0.159414         3
        24        23        22        44     9      180.000000        0.039911         4
        25         2         1        27     9        0.000000       -0.094354         1
        25         2         1        27     9      180.000000       -0.081898         2
        25         2         1        27     9        0.000000       -0.297316         3
        25         2         1        27     9      180.000000        0.056435         4
        25         2         1        28     9        0.000000       -0.094354         1
        25         2         1        28     9      180.000000       -0.081898         2
        25         2         1        28     9        0.000000       -0.297316         3
        25         2         1        28     9      180.000000        0.056435         4
        25         2         1        29     9        0.000000       -0.094354         1
        25         2         1        29     9      180.000000       -0.081898         2
        25         2         1        29     9        0.000000       -0.297316         3
        25         2         1        29     9      180.000000        0.056435         4
        25         6         5        31     9        0.000000       -0.123317         1
        25         6         5        31     9      180.000000       -0.797975         2
        25         6         5        31     9        0.000000        0.085003         3
        25         6         5        31     9      180.000000        0.190343         4
        25         6        20        40     9        0.000000        0.285837         1
        25         6        20        40     9      180.000000        0.130247         2
        25         6        20        40     9        0.000000        0.539848         3
        25         6        20        40     9      180.000000        0.002328         4
        32         8         9        33     9        0.000000       -0.126923         1
        32         8         9        33     9      180.000000       11.958412         2
        32         8         9        33     9        0.000000       -0.712987         3
        32         8         9        33     9      180.000000        0.287900         4
        33         9        10        34     9        0.000000       -0.168191         1
        33         9        10        34     9      180.000000       11.947906         2
        33         9        10        34     9        0.000000       -0.735424         3
        33         9        10        34     9      180.000000        0.321480         4
        35        13        14        36     9        0.000000       -0.202412         1
        35        13        14        36     9      180.000000       12.044167         2
        35        13        14        36     9        0.000000       -0.720040         3
        35        13        14        36     9      180.000000        0.322236         4
        36        14        15        37     9        0.000000       -0.177599         1
        36        14        15        37     9      180.000000       11.407348         2
        36        14        15        37     9        0.000000       -0.617576         3
        36        14        15        37     9      180.000000        0.288707         4
        40        20        21        41     9        0.000000        0.019727         1
        40        20        21        41     9      180.000000        0.003295         2
        40        20        21        41     9        0.000000        0.427899         3
        40        20        21        41     9      180.000000       -0.006982         4
        40        20        21        42     9        0.000000        0.019727         1
        40        20        21        42     9      180.000000        0.003295         2
        40        20        21        42     9        0.000000        0.427899         3
        40        20        21        42     9      180.000000       -0.006982         4
        40        20        24        47     9        0.000000        0.019727         1
        40        20        24        47     9      180.000000        0.003295         2
        40        20        24        47     9        0.000000        0.427899         3
        40        20        24        47     9      180.000000       -0.006982         4
        40        20        24        48     9        0.000000        0.019727         1
        40        20        24        48     9      180.000000        0.003295         2
        40        20        24        48     9        0.000000        0.427899         3
        40        20        24        48     9      180.000000       -0.006982         4
        41        21        22        43     9        0.000000       -0.030722         1
        41        21        22        43     9      180.000000        0.009887         2
        41        21        22        43     9        0.000000        0.342188         3
        41        21        22        43     9      180.000000       -0.020460         4
        41        21        22        44     9        0.000000       -0.030722         1
        41        21        22        44     9      180.000000        0.009887         2
        41        21        22        44     9        0.000000        0.342188         3
        41        21        22        44     9      180.000000       -0.020460         4
        42        21        22        43     9        0.000000       -0.030722         1
        42        21        22        43     9      180.000000        0.009887         2
        42        21        22        43     9        0.000000        0.342188         3
        42        21        22        43     9      180.000000       -0.020460         4
        42        21        22        44     9        0.000000       -0.030722         1
        42        21        22        44     9      180.000000        0.009887         2
        42        21        22        44     9        0.000000        0.342188         3
        42        21        22        44     9      180.000000       -0.020460         4
        43        22        23        45     9        0.000000       -0.017023         1
        43        22        23        45     9      180.000000        0.009105         2
        43        22        23        45     9        0.000000        0.310199         3
        43        22        23        45     9      180.000000       -0.014785         4
        43        22        23        46     9        0.000000       -0.017023         1
        43        22        23        46     9      180.000000        0.009105         2
        43        22        23        46     9        0.000000        0.310199         3
        43        22        23        46     9      180.000000       -0.014785         4
        44        22        23        45     9        0.000000       -0.017023         1
        44        22        23        45     9      180.000000        0.009105         2
        44        22        23        45     9        0.000000        0.310199         3
        44        22        23        45     9      180.000000       -0.014785         4
        44        22        23        46     9        0.000000       -0.017023         1
        44        22        23        46     9      180.000000        0.009105         2
        44        22        23        46     9        0.000000        0.310199         3
        44        22        23        46     9      180.000000       -0.014785         4
        45        23        24        47     9        0.000000       -0.030722         1
        45        23        24        47     9      180.000000        0.009887         2
        45        23        24        47     9        0.000000        0.342188         3
        45        23        24        47     9      180.000000       -0.020460         4
        45        23        24        48     9        0.000000       -0.030722         1
        45        23        24        48     9      180.000000        0.009887         2
        45        23        24        48     9        0.000000        0.342188         3
        45        23        24        48     9      180.000000       -0.020460         4
        46        23        24        47     9        0.000000       -0.030722         1
        46        23        24        47     9      180.000000        0.009887         2
        46        23        24        47     9        0.000000        0.342188         3
        46        23        24        47     9      180.000000       -0.020460         4
        46        23        24        48     9        0.000000       -0.030722         1
        46        23        24        48     9      180.000000        0.009887         2
        46        23        24        48     9        0.000000        0.342188         3
        46        23        24        48     9      180.000000       -0.020460         4

[ dihedrals ] ; impropers
;       ai        aj        ak        al funct           phase               k        pn
         3         2         4         5     4      180.000000       10.859176         2
         3         4         5         2     4      180.000000       10.859176         2
         3         5         2         4     4      180.000000       10.859176         2
        25         2         6        26     4      180.000000       27.893333         2
        25         6        26         2     4      180.000000       27.893333         2
        25        26         2         6     4      180.000000       27.893333         2

[ pairs ]
;       ai        aj funct
         1         4     1
         1         5     1
         1         6     1
         1        26     1
         2         7     1
         2        20     1
         2        30     1
         2        31     1
         2        49     1
         3         7     1
         3        20     1
         3        26     1
         3        27     1
         3        28     1
         3        29     1
         4         6     1
         4        25     1
         4        31     1
         5         8     1
         5        19     1
         5        21     1
         5        24     1
         5        26     1
         5        30     1
         5        40     1
         5        49     1
         6         9     1
         6        11     1
         6        22     1
         6        23     1
         6        32     1
         6        39     1
         6        41     1
         6        42     1
         6        47     1
         6        48     1
         7        10     1
         7        12     1
         7        21     1
         7        24     1
         7        26     1
         7        31     1
         7        33     1
         7        40     1
         8        11     1
         8        20     1
         8        25     1
         8        34     1
         8        39     1
         9        12     1
         9        19     1
        10        13     1
        10        18     1
        10        32     1
        10        39     1
        11        14     1
        11        16     1
        11        33     1
        11        35     1
        11        38     1
        12        15     1
        12        17     1
        12        34     1
        12        36     1
        12        39     1
        13        16     1
        13        19     1
        13        37     1
        13        38     1
        14        17     1
        14        18     1
        15        35     1
        15        38     1
        16        36     1
        17        37     1
        17        38     1
        18        19     1
        18        35     1
        18        37     1
        19        20     1
        19        25     1
        19        32     1
        19        34     1
        20        26     1
        20        31     1
        20        43     1
        20        44     1
        20        45     1
        20        46     1
        21        25     1
        21        45     1
        21        46     1
        21        47     1
        21        48     1
        22        40     1
        22        47     1
        22        48     1
        23        40     1
        23        41     1
        23        42     1
        24        25     1
        24        41     1
        24        42     1
        24        43     1
        24        44     1
        25        27     1
        25        28     1
        25        29     1
        25        31     1
        25        40     1
        32        33     1
        33        34     1
        35        36     1
        36        37     1
        40        41     1
        40        42     1
        40        47     1
        40        48     1
        41        43     1
        41        44     1
        42        43     1
        42        44     1
        43        45     1
        43        46     1
        44        45     1
        44        46     1
        45        47     1
        45        48     1
        46        47     1
        46        48     1
