; ITP file created by ByteFF-ML, 2026-02-21 08:14:09.947517

[ atomtypes ]
;name           bonded.type        at.num        mass        charge   ptype           sigma         epsilon
 c0bf                                   6      0.0000       0.00000       A     3.39898e-01     4.52593e-01
 n1bf                                   7      0.0000       0.00000       A     3.18321e-01     7.03038e-01
 c2bf                                   6      0.0000       0.00000       A     3.31223e-01     4.10380e-01
 n3bf                                   7      0.0000       0.00000       A     3.36731e-01     4.77019e-01
 n4bf                                   7      0.0000       0.00000       A     3.26871e-01     6.40659e-01
 c5bf                                   6      0.0000       0.00000       A     3.39379e-01     4.44341e-01
 c6bf                                   6      0.0000       0.00000       A     3.31546e-01     4.15024e-01
 c7bf                                   6      0.0000       0.00000       A     3.31529e-01     4.14153e-01
 c8bf                                   6      0.0000       0.00000       A     3.31506e-01     4.13240e-01
 c9bf                                   6      0.0000       0.00000       A     3.31502e-01     4.12817e-01
 c10bf                                  6      0.0000       0.00000       A     3.31506e-01     4.13240e-01
 c11bf                                  6      0.0000       0.00000       A     3.31529e-01     4.14153e-01
 c12bf                                  6      0.0000       0.00000       A     3.31605e-01     4.15323e-01
 c13bf                                  6      0.0000       0.00000       A     3.31511e-01     4.14036e-01
 c14bf                                  6      0.0000       0.00000       A     3.31491e-01     4.13364e-01
 c15bf                                  6      0.0000       0.00000       A     3.31504e-01     4.12557e-01
 c16bf                                  6      0.0000       0.00000       A     3.31449e-01     4.13318e-01
 c17bf                                  6      0.0000       0.00000       A     3.31254e-01     4.13251e-01
 c18bf                                  6      0.0000       0.00000       A     3.31495e-01     4.13714e-01
 n19bf                                  7      0.0000       0.00000       A     3.38257e-01     3.92063e-01
 c20bf                                  6      0.0000       0.00000       A     3.31554e-01     4.13527e-01
 c21bf                                  6      0.0000       0.00000       A     3.31497e-01     4.12736e-01
 cl22bf                                17      0.0000       0.00000       A     3.46703e-01     1.10354e+00
 c23bf                                  6      0.0000       0.00000       A     3.31474e-01     4.13115e-01
 c24bf                                  6      0.0000       0.00000       A     3.31605e-01     4.14865e-01
 c25bf                                  6      0.0000       0.00000       A     3.31448e-01     4.16660e-01
 o26bf                                  8      0.0000       0.00000       A     3.04556e-01     6.16025e-01
 h27bf                                  1      0.0000       0.00000       A     2.42205e-01     8.61909e-02
 h28bf                                  1      0.0000       0.00000       A     2.42205e-01     8.61909e-02
 h29bf                                  1      0.0000       0.00000       A     2.42205e-01     8.61909e-02
 h30bf                                  1      0.0000       0.00000       A     1.10384e-01     3.90095e-02
 h31bf                                  1      0.0000       0.00000       A     1.10491e-01     4.02241e-02
 h32bf                                  1      0.0000       0.00000       A     2.62565e-01     6.77340e-02
 h33bf                                  1      0.0000       0.00000       A     2.62462e-01     6.72839e-02
 h34bf                                  1      0.0000       0.00000       A     2.62457e-01     6.73477e-02
 h35bf                                  1      0.0000       0.00000       A     2.62462e-01     6.72839e-02
 h36bf                                  1      0.0000       0.00000       A     2.62565e-01     6.77340e-02
 h37bf                                  1      0.0000       0.00000       A     2.62565e-01     6.77340e-02
 h38bf                                  1      0.0000       0.00000       A     2.62513e-01     6.74259e-02
 h39bf                                  1      0.0000       0.00000       A     2.62472e-01     6.74738e-02
 h40bf                                  1      0.0000       0.00000       A     2.53647e-01     6.70142e-02
 h41bf                                  1      0.0000       0.00000       A     2.53626e-01     6.72089e-02
 h42bf                                  1      0.0000       0.00000       A     2.62411e-01     6.75137e-02
 h43bf                                  1      0.0000       0.00000       A     2.62568e-01     6.76574e-02
 h44bf                                  1      0.0000       0.00000       A     1.10384e-01     3.90095e-02

[ moleculetype ]
;name             nrexcl
 CAT-4p                3

[ atoms ]
;       nr            type      resi   res      atom      cgnr      charge          mass ; qtot
         1            c0bf         1   UNL        c0         1     0.07241       12.0110 ; qtot    0.072
         2            n1bf         1   UNL        n1         2    -0.59233       14.0070 ; qtot   -0.520
         3            c2bf         1   UNL        c2         3     0.93511       12.0110 ; qtot    0.415
         4            n3bf         1   UNL        n3         4    -0.58908       14.0070 ; qtot   -0.174
         5            n4bf         1   UNL        n4         5    -0.61420       14.0070 ; qtot   -0.788
         6            c5bf         1   UNL        c5         6     0.14233       12.0110 ; qtot   -0.646
         7            c6bf         1   UNL        c6         7    -0.13622       12.0110 ; qtot   -0.782
         8            c7bf         1   UNL        c7         8    -0.07841       12.0110 ; qtot   -0.860
         9            c8bf         1   UNL        c8         9    -0.10257       12.0110 ; qtot   -0.963
        10            c9bf         1   UNL        c9        10    -0.09285       12.0110 ; qtot   -1.056
        11           c10bf         1   UNL       c10        11    -0.10257       12.0110 ; qtot   -1.158
        12           c11bf         1   UNL       c11        12    -0.07841       12.0110 ; qtot   -1.237
        13           c12bf         1   UNL       c12        13    -0.12856       12.0110 ; qtot   -1.365
        14           c13bf         1   UNL       c13        14    -0.07243       12.0110 ; qtot   -1.438
        15           c14bf         1   UNL       c14        15    -0.09570       12.0110 ; qtot   -1.533
        16           c15bf         1   UNL       c15        16    -0.09219       12.0110 ; qtot   -1.626
        17           c16bf         1   UNL       c16        17    -0.02790       12.0110 ; qtot   -1.654
        18           c17bf         1   UNL       c17        18    -0.07404       12.0110 ; qtot   -1.728
        19           c18bf         1   UNL       c18        19     0.33843       12.0110 ; qtot   -1.389
        20           n19bf         1   UNL       n19        20    -0.65022       14.0070 ; qtot   -2.039
        21           c20bf         1   UNL       c20        21     0.34953       12.0110 ; qtot   -1.690
        22           c21bf         1   UNL       c21        22     0.06387       12.0110 ; qtot   -1.626
        23          cl22bf         1   UNL      cl22        23    -0.18753       35.4530 ; qtot   -1.814
        24           c23bf         1   UNL       c23        24    -0.06110       12.0110 ; qtot   -1.875
        25           c24bf         1   UNL       c24        25    -0.05728       12.0110 ; qtot   -1.932
        26           c25bf         1   UNL       c25        26     0.55441       12.0110 ; qtot   -1.378
        27           o26bf         1   UNL       o26        27    -0.38753       15.9990 ; qtot   -1.765
        28           h27bf         1   UNL       h27        28     0.08958        1.0080 ; qtot   -1.675
        29           h28bf         1   UNL       h28        29     0.08958        1.0080 ; qtot   -1.586
        30           h29bf         1   UNL       h29        30     0.08958        1.0080 ; qtot   -1.496
        31           h30bf         1   UNL       h30        31     0.38417        1.0080 ; qtot   -1.112
        32           h31bf         1   UNL       h31        32     0.41349        1.0080 ; qtot   -0.699
        33           h32bf         1   UNL       h32        33     0.12674        1.0080 ; qtot   -0.572
        34           h33bf         1   UNL       h33        34     0.11912        1.0080 ; qtot   -0.453
        35           h34bf         1   UNL       h34        35     0.11390        1.0080 ; qtot   -0.339
        36           h35bf         1   UNL       h35        36     0.11912        1.0080 ; qtot   -0.220
        37           h36bf         1   UNL       h36        37     0.12674        1.0080 ; qtot   -0.093
        38           h37bf         1   UNL       h37        38     0.12975        1.0080 ; qtot    0.037
        39           h38bf         1   UNL       h38        39     0.12026        1.0080 ; qtot    0.157
        40           h39bf         1   UNL       h39        40     0.11718        1.0080 ; qtot    0.274
        41           h40bf         1   UNL       h40        41     0.02853        1.0080 ; qtot    0.303
        42           h41bf         1   UNL       h41        42     0.04161        1.0080 ; qtot    0.344
        43           h42bf         1   UNL       h42        43     0.13949        1.0080 ; qtot    0.484
        44           h43bf         1   UNL       h43        44     0.13203        1.0080 ; qtot    0.616
        45           h44bf         1   UNL       h44        45     0.38416        1.0080 ; qtot    1.000

[ bonds ]
;       ai        aj funct               r               k
         1         2     1        0.146770   194545.402100
         1        28     1        0.109019   312430.214990
         1        29     1        0.109019   312430.214990
         1        30     1        0.109019   312430.214990
         2         3     1        0.135571   306128.141602
         2        26     1        0.142427   149007.730811
         3         4     1        0.133057   418437.999219
         3         5     1        0.133367   385280.003516
         4        31     1        0.101331   425032.293750
         4        45     1        0.101331   425032.293750
         5         6     1        0.148849   140457.127710
         5        32     1        0.101328   425133.088721
         6         7     1        0.152361   165060.408838
         6        13     1        0.152371   165267.834009
         6        26     1        0.154797   124308.621680
         7         8     1        0.140161   291585.804834
         7        12     1        0.140161   291585.804834
         8         9     1        0.139713   314164.414551
         8        33     1        0.108563   319867.744873
         9        10     1        0.139901   306343.725879
         9        34     1        0.108609   320432.753418
        10        11     1        0.139901   306343.725879
        10        35     1        0.108623   320033.506250
        11        12     1        0.139713   314164.414551
        11        36     1        0.108609   320432.753418
        12        37     1        0.108563   319867.744873
        13        14     1        0.140096   292907.452393
        13        25     1        0.139914   296225.157031
        14        15     1        0.139662   313971.788135
        14        38     1        0.108548   320727.094141
        15        16     1        0.139606   315567.397803
        15        39     1        0.108615   320003.653369
        16        17     1        0.140529   285937.072852
        16        40     1        0.108593   318502.760840
        17        18     1        0.148059   216586.991943
        17        25     1        0.140367   287619.968359
        18        19     1        0.140803   270786.774121
        18        24     1        0.140340   289545.543018
        19        20     1        0.133676   326832.965918
        19        41     1        0.108767   316542.047119
        20        21     1        0.133728   318301.860400
        21        22     1        0.139907   280563.477686
        21        42     1        0.108685   320763.050391
        22        23     1        0.175200   154152.219800
        22        24     1        0.139203   313188.564990
        24        43     1        0.108473   324006.263281
        25        44     1        0.108527   319750.938135
        26        27     1        0.120340   720922.965723

[ angles ]
;       ai        aj        ak funct           theta             cth
         1         2         3     1      126.578964      468.028818
         1         2        26     1      123.180504      536.340905
         2         1        28     1      109.237282      484.028775
         2         1        29     1      109.237282      484.028775
         2         1        30     1      109.237282      484.028775
         2         3         4     1      123.852600      626.812755
         2         3         5     1      111.298294      587.422338
         2        26         6     1      106.249046      167.360000
         2        26        27     1      124.686508      645.429180
         3         2        26     1      109.844299      842.413950
         3         4        31     1      121.296143      450.934533
         3         4        45     1      121.296143      450.934469
         3         5         6     1      111.971664      628.767046
         3         5        32     1      123.585732      427.054526
         4         3         5     1      125.357384      617.615756
         5         6         7     1      110.788513      594.970597
         5         6        13     1      110.780807      597.256870
         5         6        26     1      100.257896      341.583832
         6         5        32     1      120.754250      368.882364
         6         7         8     1      120.068604      477.433625
         6         7        12     1      120.068604      477.433625
         6        13        14     1      120.064842      485.172997
         6        13        25     1      119.865097      444.101058
         6        26        27     1      127.886978      362.102102
         7         6        13     1      114.689331      487.977387
         7         6        26     1      111.267578      601.092991
         7         8         9     1      120.195145      680.403464
         7         8        33     1      120.290939      398.410317
         7        12        11     1      120.195145      680.403464
         7        12        37     1      120.290939      398.410317
         8         7        12     1      119.478966      686.490936
         8         9        10     1      120.116295      721.653685
         8         9        34     1      119.730301      425.611775
         9         8        33     1      119.529823      427.934567
         9        10        11     1      119.660950      700.021263
         9        10        35     1      120.189026      428.146429
        10         9        34     1      120.129761      427.908647
        10        11        12     1      120.116295      721.653685
        10        11        36     1      120.129761      427.908679
        11        10        35     1      120.189026      428.146429
        11        12        37     1      119.529823      427.934599
        12        11        36     1      119.730301      425.611775
        13         6        26     1      111.206482      602.067296
        13        14        15     1      119.673203      676.925437
        13        14        38     1      120.424927      402.069114
        13        25        17     1      121.030251      663.004521
        13        25        44     1      119.814171      402.319410
        14        13        25     1      119.653709      693.953263
        14        15        16     1      120.355080      726.096822
        14        15        39     1      119.830856      430.852405
        15        14        38     1      119.808311      423.195678
        15        16        17     1      120.336594      702.345778
        15        16        40     1      119.740479      429.528625
        16        15        39     1      119.798172      434.972658
        16        17        18     1      120.768532      509.843696
        16        17        25     1      118.498268      669.718482
        17        16        40     1      119.871117      428.586338
        17        18        19     1      121.361862      544.369070
        17        18        24     1      121.447937      466.900908
        17        25        44     1      119.195618      416.985723
        18        17        25     1      120.771378      424.509434
        18        19        20     1      124.143631      737.453622
        18        19        41     1      119.973801      408.397689
        18        24        22     1      118.703476      722.696429
        18        24        43     1      121.172470      415.174759
        19        18        24     1      116.992737      623.418745
        19        20        21     1      118.346756      676.100717
        20        19        41     1      116.029076      328.555214
        20        21        22     1      121.887489      611.505428
        20        21        42     1      117.353348      333.121824
        21        22        23     1      119.761192      364.589927
        21        22        24     1      119.839233      697.158362
        22        21        42     1      120.648903      405.782817
        22        24        43     1      120.319229      414.894713
        23        22        24     1      120.204819      362.830165
        28         1        29     1      109.825012      349.354041
        28         1        30     1      109.825012      349.354041
        29         1        30     1      109.825012      349.354041
        31         4        45     1      117.458168      314.236876

[ dihedrals ] ; propers for gromacs 4.5 or higher, use funct 9
;       ai        aj        ak        al funct           phase               k        pn
         1         2         3         4     9        0.000000        1.750031         1
         1         2         3         4     9      180.000000        7.527046         2
         1         2         3         4     9        0.000000       -0.053234         3
         1         2         3         4     9      180.000000       -0.107064         4
         1         2         3         5     9        0.000000       -2.795685         1
         1         2         3         5     9      180.000000        5.725591         2
         1         2         3         5     9        0.000000       -0.188592         3
         1         2         3         5     9      180.000000        0.060183         4
         1         2        26         6     9        0.000000       -0.538857         1
         1         2        26         6     9      180.000000        5.575424         2
         1         2        26         6     9        0.000000        0.152376         3
         1         2        26         6     9      180.000000       -0.161733         4
         1         2        26        27     9        0.000000       -0.456215         1
         1         2        26        27     9      180.000000        9.244379         2
         1         2        26        27     9        0.000000       -0.319752         3
         1         2        26        27     9      180.000000        0.297308         4
         2         3         4        31     9        0.000000       -0.736374         1
         2         3         4        31     9      180.000000        6.300565         2
         2         3         4        31     9        0.000000        0.313029         3
         2         3         4        31     9      180.000000       -0.635641         4
         2         3         4        45     9        0.000000       -0.736375         1
         2         3         4        45     9      180.000000        6.300565         2
         2         3         4        45     9        0.000000        0.313029         3
         2         3         4        45     9      180.000000       -0.635641         4
         2         3         5         6     9        0.000000       -1.518929         1
         2         3         5         6     9      180.000000       21.988461         2
         2         3         5         6     9        0.000000       -1.439307         3
         2         3         5         6     9      180.000000       -2.630186         4
         2         3         5        32     9        0.000000       -0.583773         1
         2         3         5        32     9      180.000000        8.920949         2
         2         3         5        32     9        0.000000        0.096791         3
         2         3         5        32     9      180.000000       -0.874819         4
         2        26         6         5     9        0.000000        0.368981         1
         2        26         6         5     9      180.000000        8.187297         2
         2        26         6         5     9        0.000000       -0.153603         3
         2        26         6         5     9      180.000000       -0.438700         4
         2        26         6         7     9        0.000000        0.495500         1
         2        26         6         7     9      180.000000        0.481891         2
         2        26         6         7     9        0.000000        0.316943         3
         2        26         6         7     9      180.000000        0.846984         4
         2        26         6        13     9        0.000000        0.551085         1
         2        26         6        13     9      180.000000        0.477492         2
         2        26         6        13     9        0.000000        0.339127         3
         2        26         6        13     9      180.000000        0.837442         4
         3         2         1        28     9        0.000000        0.021130         1
         3         2         1        28     9      180.000000        0.000117         2
         3         2         1        28     9        0.000000        0.183870         3
         3         2         1        28     9      180.000000       -0.015824         4
         3         2         1        29     9        0.000000        0.021130         1
         3         2         1        29     9      180.000000        0.000117         2
         3         2         1        29     9        0.000000        0.183870         3
         3         2         1        29     9      180.000000       -0.015824         4
         3         2         1        30     9        0.000000        0.021130         1
         3         2         1        30     9      180.000000        0.000117         2
         3         2         1        30     9        0.000000        0.183870         3
         3         2         1        30     9      180.000000       -0.015824         4
         3         2        26         6     9        0.000000       -2.825559         1
         3         2        26         6     9      180.000000       10.925332         2
         3         2        26         6     9        0.000000       -1.470465         3
         3         2        26         6     9      180.000000       -0.300432         4
         3         2        26        27     9        0.000000        1.928666         1
         3         2        26        27     9      180.000000       16.805427         2
         3         2        26        27     9        0.000000       -0.505018         3
         3         2        26        27     9      180.000000       -0.817874         4
         3         5         6         7     9        0.000000        0.573703         1
         3         5         6         7     9      180.000000        0.602635         2
         3         5         6         7     9        0.000000        0.267748         3
         3         5         6         7     9      180.000000        0.243559         4
         3         5         6        13     9        0.000000        0.399115         1
         3         5         6        13     9      180.000000        0.607968         2
         3         5         6        13     9        0.000000        0.264496         3
         3         5         6        13     9      180.000000        0.238957         4
         3         5         6        26     9        0.000000       -2.323484         1
         3         5         6        26     9      180.000000        6.770824         2
         3         5         6        26     9        0.000000       -0.429740         3
         3         5         6        26     9      180.000000       -1.708534         4
         4         3         2        26     9        0.000000        1.384865         1
         4         3         2        26     9      180.000000       13.000208         2
         4         3         2        26     9        0.000000       -0.230674         3
         4         3         2        26     9      180.000000       -0.772286         4
         4         3         5         6     9        0.000000        1.917672         1
         4         3         5         6     9      180.000000       17.273762         2
         4         3         5         6     9        0.000000        0.746894         3
         4         3         5         6     9      180.000000       -1.864771         4
         4         3         5        32     9        0.000000       -0.563534         1
         4         3         5        32     9      180.000000        8.078403         2
         4         3         5        32     9        0.000000        0.471206         3
         4         3         5        32     9      180.000000       -0.472618         4
         5         3         2        26     9        0.000000       -1.562446         1
         5         3         2        26     9      180.000000       14.809948         2
         5         3         2        26     9        0.000000       -2.756051         3
         5         3         2        26     9      180.000000       -1.320170         4
         5         3         4        31     9        0.000000       -1.578259         1
         5         3         4        31     9      180.000000        6.607875         2
         5         3         4        31     9        0.000000        0.015933         3
         5         3         4        31     9      180.000000       -0.506731         4
         5         3         4        45     9        0.000000       -1.578259         1
         5         3         4        45     9      180.000000        6.607875         2
         5         3         4        45     9        0.000000        0.015933         3
         5         3         4        45     9      180.000000       -0.506730         4
         5         6         7         8     9        0.000000       -0.346790         1
         5         6         7         8     9      180.000000        1.241990         2
         5         6         7         8     9        0.000000        0.147219         3
         5         6         7         8     9      180.000000        0.192257         4
         5         6         7        12     9        0.000000       -0.346790         1
         5         6         7        12     9      180.000000        1.241990         2
         5         6         7        12     9        0.000000        0.147219         3
         5         6         7        12     9      180.000000        0.192257         4
         5         6        13        14     9        0.000000       -0.376656         1
         5         6        13        14     9      180.000000        1.344968         2
         5         6        13        14     9        0.000000        0.145598         3
         5         6        13        14     9      180.000000        0.196839         4
         5         6        13        25     9        0.000000       -0.220403         1
         5         6        13        25     9      180.000000        1.410753         2
         5         6        13        25     9        0.000000        0.072361         3
         5         6        13        25     9      180.000000        0.197601         4
         5         6        26        27     9        0.000000        6.446726         1
         5         6        26        27     9      180.000000        5.117103         2
         5         6        26        27     9        0.000000        0.133933         3
         5         6        26        27     9      180.000000        0.360037         4
         6         7         8         9     9        0.000000        0.162833         1
         6         7         8         9     9      180.000000       14.950996         2
         6         7         8         9     9        0.000000       -0.196275         3
         6         7         8         9     9      180.000000       -0.190856         4
         6         7         8        33     9        0.000000       -0.059051         1
         6         7         8        33     9      180.000000       12.509450         2
         6         7         8        33     9        0.000000       -0.335274         3
         6         7         8        33     9      180.000000        0.203866         4
         6         7        12        11     9        0.000000        0.162833         1
         6         7        12        11     9      180.000000       14.950996         2
         6         7        12        11     9        0.000000       -0.196275         3
         6         7        12        11     9      180.000000       -0.190856         4
         6         7        12        37     9        0.000000       -0.059052         1
         6         7        12        37     9      180.000000       12.509450         2
         6         7        12        37     9        0.000000       -0.335274         3
         6         7        12        37     9      180.000000        0.203866         4
         6        13        14        15     9        0.000000        0.183559         1
         6        13        14        15     9      180.000000       14.986925         2
         6        13        14        15     9        0.000000       -0.202030         3
         6        13        14        15     9      180.000000       -0.199513         4
         6        13        14        38     9        0.000000       -0.012755         1
         6        13        14        38     9      180.000000       12.563720         2
         6        13        14        38     9        0.000000       -0.313825         3
         6        13        14        38     9      180.000000        0.185545         4
         6        13        25        17     9        0.000000        0.171445         1
         6        13        25        17     9      180.000000       14.701034         2
         6        13        25        17     9        0.000000       -0.121682         3
         6        13        25        17     9      180.000000       -0.239746         4
         6        13        25        44     9        0.000000        0.006861         1
         6        13        25        44     9      180.000000       12.783081         2
         6        13        25        44     9        0.000000       -0.285267         3
         6        13        25        44     9      180.000000        0.174962         4
         7         6         5        32     9        0.000000        1.059913         1
         7         6         5        32     9      180.000000        0.593355         2
         7         6         5        32     9        0.000000        0.126829         3
         7         6         5        32     9      180.000000       -0.016391         4
         7         6        13        14     9        0.000000        0.058894         1
         7         6        13        14     9      180.000000        0.377344         2
         7         6        13        14     9        0.000000        0.198239         3
         7         6        13        14     9      180.000000        0.078960         4
         7         6        13        25     9        0.000000       -0.115507         1
         7         6        13        25     9      180.000000        0.448479         2
         7         6        13        25     9        0.000000        0.141691         3
         7         6        13        25     9      180.000000        0.057427         4
         7         6        26        27     9        0.000000       -1.152817         1
         7         6        26        27     9      180.000000        1.072200         2
         7         6        26        27     9        0.000000       -0.348037         3
         7         6        26        27     9      180.000000        0.393151         4
         7         8         9        10     9        0.000000        0.112457         1
         7         8         9        10     9      180.000000       19.076179         2
         7         8         9        10     9        0.000000       -1.528293         3
         7         8         9        10     9      180.000000       -0.501395         4
         7         8         9        34     9        0.000000        0.036242         1
         7         8         9        34     9      180.000000       15.148456         2
         7         8         9        34     9        0.000000       -0.607416         3
         7         8         9        34     9      180.000000        0.081088         4
         7        12        11        10     9        0.000000        0.112457         1
         7        12        11        10     9      180.000000       19.076179         2
         7        12        11        10     9        0.000000       -1.528293         3
         7        12        11        10     9      180.000000       -0.501395         4
         7        12        11        36     9        0.000000        0.036242         1
         7        12        11        36     9      180.000000       15.148456         2
         7        12        11        36     9        0.000000       -0.607416         3
         7        12        11        36     9      180.000000        0.081089         4
         8         7         6        13     9        0.000000        0.000123         1
         8         7         6        13     9      180.000000        0.357554         2
         8         7         6        13     9        0.000000        0.204899         3
         8         7         6        13     9      180.000000        0.092106         4
         8         7         6        26     9        0.000000       -0.388488         1
         8         7         6        26     9      180.000000       -0.678832         2
         8         7         6        26     9        0.000000        0.177104         3
         8         7         6        26     9      180.000000        0.152568         4
         8         7        12        11     9        0.000000       -0.125590         1
         8         7        12        11     9      180.000000       19.197404         2
         8         7        12        11     9        0.000000       -1.469704         3
         8         7        12        11     9      180.000000       -0.532165         4
         8         7        12        37     9        0.000000        0.001779         1
         8         7        12        37     9      180.000000       14.559357         2
         8         7        12        37     9        0.000000       -0.693507         3
         8         7        12        37     9      180.000000        0.005835         4
         8         9        10        11     9        0.000000       -0.072947         1
         8         9        10        11     9      180.000000       18.710862         2
         8         9        10        11     9        0.000000       -1.638188         3
         8         9        10        11     9      180.000000       -0.393764         4
         8         9        10        35     9        0.000000        0.032122         1
         8         9        10        35     9      180.000000       14.422667         2
         8         9        10        35     9        0.000000       -0.779016         3
         8         9        10        35     9      180.000000        0.114208         4
         9         8         7        12     9        0.000000       -0.125590         1
         9         8         7        12     9      180.000000       19.197404         2
         9         8         7        12     9        0.000000       -1.469704         3
         9         8         7        12     9      180.000000       -0.532165         4
         9        10        11        12     9        0.000000       -0.072947         1
         9        10        11        12     9      180.000000       18.710862         2
         9        10        11        12     9        0.000000       -1.638188         3
         9        10        11        12     9      180.000000       -0.393764         4
         9        10        11        36     9        0.000000        0.017562         1
         9        10        11        36     9      180.000000       14.269724         2
         9        10        11        36     9        0.000000       -0.769057         3
         9        10        11        36     9      180.000000        0.155538         4
        10         9         8        33     9        0.000000        0.047715         1
        10         9         8        33     9      180.000000       14.992779         2
        10         9         8        33     9        0.000000       -0.684086         3
        10         9         8        33     9      180.000000        0.101542         4
        10        11        12        37     9        0.000000        0.047714         1
        10        11        12        37     9      180.000000       14.992778         2
        10        11        12        37     9        0.000000       -0.684086         3
        10        11        12        37     9      180.000000        0.101543         4
        11        10         9        34     9        0.000000        0.017563         1
        11        10         9        34     9      180.000000       14.269722         2
        11        10         9        34     9        0.000000       -0.769057         3
        11        10         9        34     9      180.000000        0.155538         4
        12         7         6        13     9        0.000000        0.000123         1
        12         7         6        13     9      180.000000        0.357554         2
        12         7         6        13     9        0.000000        0.204899         3
        12         7         6        13     9      180.000000        0.092106         4
        12         7         6        26     9        0.000000       -0.388488         1
        12         7         6        26     9      180.000000       -0.678832         2
        12         7         6        26     9        0.000000        0.177104         3
        12         7         6        26     9      180.000000        0.152568         4
        12         7         8        33     9        0.000000        0.001779         1
        12         7         8        33     9      180.000000       14.559357         2
        12         7         8        33     9        0.000000       -0.693508         3
        12         7         8        33     9      180.000000        0.005835         4
        12        11        10        35     9        0.000000        0.032122         1
        12        11        10        35     9      180.000000       14.422667         2
        12        11        10        35     9        0.000000       -0.779016         3
        12        11        10        35     9      180.000000        0.114208         4
        13         6         5        32     9        0.000000        0.897844         1
        13         6         5        32     9      180.000000        0.607272         2
        13         6         5        32     9        0.000000        0.137571         3
        13         6         5        32     9      180.000000       -0.018752         4
        13         6        26        27     9        0.000000       -0.949888         1
        13         6        26        27     9      180.000000        1.119253         2
        13         6        26        27     9        0.000000       -0.353354         3
        13         6        26        27     9      180.000000        0.390425         4
        13        14        15        16     9        0.000000        0.135064         1
        13        14        15        16     9      180.000000       18.637575         2
        13        14        15        16     9        0.000000       -1.470402         3
        13        14        15        16     9      180.000000       -0.480554         4
        13        14        15        39     9        0.000000        0.070387         1
        13        14        15        39     9      180.000000       15.112305         2
        13        14        15        39     9        0.000000       -0.539903         3
        13        14        15        39     9      180.000000        0.068146         4
        13        25        17        16     9        0.000000       -0.062939         1
        13        25        17        16     9      180.000000       18.744248         2
        13        25        17        16     9        0.000000       -1.589156         3
        13        25        17        16     9      180.000000       -0.486001         4
        13        25        17        18     9        0.000000        0.332827         1
        13        25        17        18     9      180.000000       17.062261         2
        13        25        17        18     9        0.000000       -0.132774         3
        13        25        17        18     9      180.000000       -0.460202         4
        14        13         6        26     9        0.000000       -0.327945         1
        14        13         6        26     9      180.000000       -0.606490         2
        14        13         6        26     9        0.000000        0.177664         3
        14        13         6        26     9      180.000000        0.152836         4
        14        13        25        17     9        0.000000       -0.080615         1
        14        13        25        17     9      180.000000       19.181070         2
        14        13        25        17     9        0.000000       -1.494286         3
        14        13        25        17     9      180.000000       -0.504479         4
        14        13        25        44     9        0.000000        0.031291         1
        14        13        25        44     9      180.000000       14.628395         2
        14        13        25        44     9        0.000000       -0.716807         3
        14        13        25        44     9      180.000000        0.015248         4
        14        15        16        17     9        0.000000       -0.035991         1
        14        15        16        17     9      180.000000       18.827509         2
        14        15        16        17     9        0.000000       -1.521029         3
        14        15        16        17     9      180.000000       -0.344186         4
        14        15        16        40     9        0.000000        0.068545         1
        14        15        16        40     9      180.000000       14.643716         2
        14        15        16        40     9        0.000000       -0.732303         3
        14        15        16        40     9      180.000000        0.157835         4
        15        14        13        25     9        0.000000       -0.165046         1
        15        14        13        25     9      180.000000       19.256325         2
        15        14        13        25     9        0.000000       -1.457951         3
        15        14        13        25     9      180.000000       -0.494685         4
        15        16        17        18     9        0.000000        0.224135         1
        15        16        17        18     9      180.000000       16.252535         2
        15        16        17        18     9        0.000000       -0.221766         3
        15        16        17        18     9      180.000000       -0.277334         4
        15        16        17        25     9        0.000000       -0.219227         1
        15        16        17        25     9      180.000000       18.866980         2
        15        16        17        25     9        0.000000       -1.558681         3
        15        16        17        25     9      180.000000       -0.354860         4
        16        15        14        38     9        0.000000        0.062335         1
        16        15        14        38     9      180.000000       14.607759         2
        16        15        14        38     9        0.000000       -0.649707         3
        16        15        14        38     9      180.000000        0.076628         4
        16        17        18        19     9        0.000000       -0.086731         1
        16        17        18        19     9      180.000000        2.641898         2
        16        17        18        19     9        0.000000        0.061594         3
        16        17        18        19     9      180.000000       -0.205378         4
        16        17        18        24     9        0.000000        0.049849         1
        16        17        18        24     9      180.000000        3.035967         2
        16        17        18        24     9        0.000000        0.036019         3
        16        17        18        24     9      180.000000       -0.146471         4
        16        17        25        44     9        0.000000       -0.147090         1
        16        17        25        44     9      180.000000       14.753557         2
        16        17        25        44     9        0.000000       -0.638030         3
        16        17        25        44     9      180.000000       -0.033670         4
        17        16        15        39     9        0.000000       -0.053016         1
        17        16        15        39     9      180.000000       14.867859         2
        17        16        15        39     9        0.000000       -0.600878         3
        17        16        15        39     9      180.000000        0.085273         4
        17        18        19        20     9        0.000000        0.404227         1
        17        18        19        20     9      180.000000       15.147675         2
        17        18        19        20     9        0.000000        0.057296         3
        17        18        19        20     9      180.000000       -0.478981         4
        17        18        19        41     9        0.000000        0.112720         1
        17        18        19        41     9      180.000000       12.863722         2
        17        18        19        41     9        0.000000       -0.136426         3
        17        18        19        41     9      180.000000        0.150328         4
        17        18        24        22     9        0.000000        0.221653         1
        17        18        24        22     9      180.000000       16.419641         2
        17        18        24        22     9        0.000000       -0.136428         3
        17        18        24        22     9      180.000000       -0.425260         4
        17        18        24        43     9        0.000000       -0.024363         1
        17        18        24        43     9      180.000000       13.054656         2
        17        18        24        43     9        0.000000       -0.189837         3
        17        18        24        43     9      180.000000        0.170706         4
        18        17        16        40     9        0.000000       -0.138014         1
        18        17        16        40     9      180.000000       13.439082         2
        18        17        16        40     9        0.000000       -0.281888         3
        18        17        16        40     9      180.000000        0.150681         4
        18        17        25        44     9        0.000000       -0.133613         1
        18        17        25        44     9      180.000000       13.404786         2
        18        17        25        44     9        0.000000       -0.180340         3
        18        17        25        44     9      180.000000        0.145649         4
        18        19        20        21     9        0.000000        0.137620         1
        18        19        20        21     9      180.000000       22.891221         2
        18        19        20        21     9        0.000000       -0.779677         3
        18        19        20        21     9      180.000000       -0.145424         4
        18        24        22        21     9        0.000000       -0.045651         1
        18        24        22        21     9      180.000000       17.965975         2
        18        24        22        21     9        0.000000       -1.474161         3
        18        24        22        21     9      180.000000       -0.412076         4
        18        24        22        23     9        0.000000        0.328187         1
        18        24        22        23     9      180.000000       19.529441         2
        18        24        22        23     9        0.000000        0.304858         3
        18        24        22        23     9      180.000000       -0.800813         4
        19        18        17        25     9        0.000000       -0.037675         1
        19        18        17        25     9      180.000000        2.797992         2
        19        18        17        25     9        0.000000        0.097122         3
        19        18        17        25     9      180.000000       -0.210291         4
        19        18        24        22     9        0.000000       -0.265011         1
        19        18        24        22     9      180.000000       17.837124         2
        19        18        24        22     9        0.000000       -1.728244         3
        19        18        24        22     9      180.000000       -0.409998         4
        19        18        24        43     9        0.000000       -0.080068         1
        19        18        24        43     9      180.000000       13.095378         2
        19        18        24        43     9        0.000000       -0.746427         3
        19        18        24        43     9      180.000000        0.128025         4
        19        20        21        22     9        0.000000        0.192896         1
        19        20        21        22     9      180.000000       21.841050         2
        19        20        21        22     9        0.000000       -0.699144         3
        19        20        21        22     9      180.000000       -0.053634         4
        19        20        21        42     9        0.000000        0.815094         1
        19        20        21        42     9      180.000000       20.108026         2
        19        20        21        42     9        0.000000        0.161180         3
        19        20        21        42     9      180.000000       -0.421784         4
        20        19        18        24     9        0.000000       -0.062438         1
        20        19        18        24     9      180.000000       16.824729         2
        20        19        18        24     9        0.000000       -0.669128         3
        20        19        18        24     9      180.000000       -0.337433         4
        20        21        22        23     9        0.000000        0.001256         1
        20        21        22        23     9      180.000000       17.835249         2
        20        21        22        23     9        0.000000        0.138385         3
        20        21        22        23     9      180.000000       -0.810479         4
        20        21        22        24     9        0.000000       -0.069639         1
        20        21        22        24     9      180.000000       15.494252         2
        20        21        22        24     9        0.000000       -0.777126         3
        20        21        22        24     9      180.000000       -0.240077         4
        21        20        19        41     9        0.000000        1.082257         1
        21        20        19        41     9      180.000000       20.846389         2
        21        20        19        41     9        0.000000        0.178696         3
        21        20        19        41     9      180.000000       -0.181982         4
        21        22        24        43     9        0.000000        0.032482         1
        21        22        24        43     9      180.000000       13.467537         2
        21        22        24        43     9        0.000000       -0.617878         3
        21        22        24        43     9      180.000000        0.161348         4
        23        22        21        42     9        0.000000        0.260195         1
        23        22        21        42     9      180.000000       12.678983         2
        23        22        21        42     9        0.000000       -0.106458         3
        23        22        21        42     9      180.000000        0.272263         4
        23        22        24        43     9        0.000000        0.204885         1
        23        22        24        43     9      180.000000       13.851983         2
        23        22        24        43     9        0.000000       -0.115129         3
        23        22        24        43     9      180.000000        0.269315         4
        24        18        17        25     9        0.000000        0.076548         1
        24        18        17        25     9      180.000000        3.171561         2
        24        18        17        25     9        0.000000        0.020900         3
        24        18        17        25     9      180.000000       -0.146983         4
        24        18        19        41     9        0.000000       -0.151172         1
        24        18        19        41     9      180.000000       13.228435         2
        24        18        19        41     9        0.000000       -0.372680         3
        24        18        19        41     9      180.000000        0.089076         4
        24        22        21        42     9        0.000000        0.081705         1
        24        22        21        42     9      180.000000       12.946138         2
        24        22        21        42     9        0.000000       -0.435137         3
        24        22        21        42     9      180.000000        0.071149         4
        25        13         6        26     9        0.000000       -0.513348         1
        25        13         6        26     9      180.000000       -0.495947         2
        25        13         6        26     9        0.000000        0.168077         3
        25        13         6        26     9      180.000000        0.137032         4
        25        13        14        38     9        0.000000        0.033348         1
        25        13        14        38     9      180.000000       14.525761         2
        25        13        14        38     9        0.000000       -0.654077         3
        25        13        14        38     9      180.000000        0.010725         4
        25        17        16        40     9        0.000000       -0.140479         1
        25        17        16        40     9      180.000000       14.783177         2
        25        17        16        40     9        0.000000       -0.682047         3
        25        17        16        40     9      180.000000        0.035618         4
        26         2         1        28     9        0.000000       -0.064801         1
        26         2         1        28     9      180.000000       -0.077149         2
        26         2         1        28     9        0.000000       -0.306371         3
        26         2         1        28     9      180.000000        0.046923         4
        26         2         1        29     9        0.000000       -0.064801         1
        26         2         1        29     9      180.000000       -0.077149         2
        26         2         1        29     9        0.000000       -0.306371         3
        26         2         1        29     9      180.000000        0.046923         4
        26         2         1        30     9        0.000000       -0.064801         1
        26         2         1        30     9      180.000000       -0.077149         2
        26         2         1        30     9        0.000000       -0.306371         3
        26         2         1        30     9      180.000000        0.046923         4
        26         6         5        32     9        0.000000       -0.467874         1
        26         6         5        32     9      180.000000       -0.863893         2
        26         6         5        32     9        0.000000        0.107572         3
        26         6         5        32     9      180.000000        0.174536         4
        33         8         9        34     9        0.000000       -0.132350         1
        33         8         9        34     9      180.000000       12.096764         2
        33         8         9        34     9        0.000000       -0.739346         3
        33         8         9        34     9      180.000000        0.287473         4
        34         9        10        35     9        0.000000       -0.081259         1
        34         9        10        35     9      180.000000       11.518639         2
        34         9        10        35     9        0.000000       -0.598806         3
        34         9        10        35     9      180.000000        0.259343         4
        35        10        11        36     9        0.000000       -0.081259         1
        35        10        11        36     9      180.000000       11.518641         2
        35        10        11        36     9        0.000000       -0.598806         3
        35        10        11        36     9      180.000000        0.259343         4
        36        11        12        37     9        0.000000       -0.132350         1
        36        11        12        37     9      180.000000       12.096763         2
        36        11        12        37     9        0.000000       -0.739346         3
        36        11        12        37     9      180.000000        0.287473         4
        38        14        15        39     9        0.000000       -0.117658         1
        38        14        15        39     9      180.000000       11.932392         2
        38        14        15        39     9        0.000000       -0.694353         3
        38        14        15        39     9      180.000000        0.275937         4
        39        15        16        40     9        0.000000       -0.168798         1
        39        15        16        40     9      180.000000       11.985178         2
        39        15        16        40     9        0.000000       -0.719034         3
        39        15        16        40     9      180.000000        0.305305         4

[ dihedrals ] ; impropers
;       ai        aj        ak        al funct           phase               k        pn
         3         2         4         5     4      180.000000       10.558910         2
         3         4         5         2     4      180.000000       10.558910         2
         3         5         2         4     4      180.000000       10.558910         2
         8         7         9        33     4      180.000000        0.223529         2
         8         9        33         7     4      180.000000        0.223529         2
         8        33         7         9     4      180.000000        0.223529         2
         9         8        10        34     4      180.000000        0.650929         2
         9        10        34         8     4      180.000000        0.650929         2
         9        34         8        10     4      180.000000        0.650929         2
        10         9        11        35     4      180.000000        1.596565         2
        10        11        35         9     4      180.000000        1.596565         2
        10        35         9        11     4      180.000000        1.596565         2
        11        10        12        36     4      180.000000        0.650929         2
        11        12        36        10     4      180.000000        0.650929         2
        11        36        10        12     4      180.000000        0.650929         2
        12         7        11        37     4      180.000000        0.223528         2
        12        11        37         7     4      180.000000        0.223528         2
        12        37         7        11     4      180.000000        0.223528         2
        15        14        16        39     4      180.000000        0.281448         2
        15        16        39        14     4      180.000000        0.281448         2
        15        39        14        16     4      180.000000        0.281448         2
        19        18        20        41     4      180.000000        1.714254         2
        19        20        41        18     4      180.000000        1.714254         2
        19        41        18        20     4      180.000000        1.714254         2
        21        20        22        42     4      180.000000        4.872487         2
        21        22        42        20     4      180.000000        4.872487         2
        21        42        20        22     4      180.000000        4.872487         2
        26         2         6        27     4      180.000000       27.376329         2
        26         6        27         2     4      180.000000       27.376329         2
        26        27         2         6     4      180.000000       27.376329         2

[ pairs ]
;       ai        aj funct
         1         4     1
         1         5     1
         1         6     1
         1        27     1
         2         7     1
         2        13     1
         2        31     1
         2        32     1
         2        45     1
         3         7     1
         3        13     1
         3        27     1
         3        28     1
         3        29     1
         3        30     1
         4         6     1
         4        26     1
         4        32     1
         5         8     1
         5        12     1
         5        14     1
         5        25     1
         5        27     1
         5        31     1
         5        45     1
         6         9     1
         6        11     1
         6        15     1
         6        17     1
         6        33     1
         6        37     1
         6        38     1
         6        44     1
         7        10     1
         7        14     1
         7        25     1
         7        27     1
         7        32     1
         7        34     1
         7        36     1
         8        11     1
         8        13     1
         8        26     1
         8        35     1
         8        37     1
         9        12     1
         9        36     1
        10        33     1
        10        37     1
        11        34     1
        12        13     1
        12        26     1
        12        33     1
        12        35     1
        13        16     1
        13        18     1
        13        27     1
        13        32     1
        13        39     1
        14        17     1
        14        26     1
        14        40     1
        14        44     1
        15        18     1
        15        25     1
        16        19     1
        16        24     1
        16        38     1
        16        44     1
        17        20     1
        17        22     1
        17        39     1
        17        41     1
        17        43     1
        18        21     1
        18        23     1
        18        40     1
        18        44     1
        19        22     1
        19        25     1
        19        42     1
        19        43     1
        20        23     1
        20        24     1
        21        41     1
        21        43     1
        23        42     1
        23        43     1
        24        25     1
        24        41     1
        24        42     1
        25        26     1
        25        38     1
        25        40     1
        26        28     1
        26        29     1
        26        30     1
        26        32     1
        33        34     1
        34        35     1
        35        36     1
        36        37     1
        38        39     1
        39        40     1
