; ITP file created by ByteFF-ML, 2026-02-21 08:13:47.740335

[ atomtypes ]
;name           bonded.type        at.num        mass        charge   ptype           sigma         epsilon
 c0bf                                   6      0.0000       0.00000       A     3.39916e-01     4.52554e-01
 n1bf                                   7      0.0000       0.00000       A     3.18292e-01     7.06281e-01
 c2bf                                   6      0.0000       0.00000       A     3.31301e-01     4.10397e-01
 n3bf                                   7      0.0000       0.00000       A     3.36712e-01     4.77349e-01
 n4bf                                   7      0.0000       0.00000       A     3.26793e-01     6.42943e-01
 c5bf                                   6      0.0000       0.00000       A     3.39855e-01     4.49246e-01
 c6bf                                   6      0.0000       0.00000       A     3.39762e-01     4.49453e-01
 c7bf                                   6      0.0000       0.00000       A     3.31617e-01     4.15005e-01
 c8bf                                   6      0.0000       0.00000       A     3.31511e-01     4.13735e-01
 c9bf                                   6      0.0000       0.00000       A     3.31498e-01     4.13427e-01
 c10bf                                  6      0.0000       0.00000       A     3.31500e-01     4.12376e-01
 c11bf                                  6      0.0000       0.00000       A     3.31396e-01     4.12338e-01
 c12bf                                  6      0.0000       0.00000       A     3.31338e-01     4.14041e-01
 c13bf                                  6      0.0000       0.00000       A     3.31495e-01     4.12332e-01
 c14bf                                  6      0.0000       0.00000       A     3.31470e-01     4.12993e-01
 c15bf                                  6      0.0000       0.00000       A     3.31492e-01     4.12697e-01
 c16bf                                  6      0.0000       0.00000       A     3.31464e-01     4.12774e-01
 cl17bf                                17      0.0000       0.00000       A     3.46727e-01     1.10410e+00
 c18bf                                  6      0.0000       0.00000       A     3.31525e-01     4.12943e-01
 c19bf                                  6      0.0000       0.00000       A     3.31599e-01     4.15245e-01
 c20bf                                  6      0.0000       0.00000       A     3.31346e-01     4.15026e-01
 o21bf                                  8      0.0000       0.00000       A     3.04642e-01     6.16040e-01
 h22bf                                  1      0.0000       0.00000       A     2.42205e-01     8.61909e-02
 h23bf                                  1      0.0000       0.00000       A     2.42205e-01     8.61909e-02
 h24bf                                  1      0.0000       0.00000       A     2.42205e-01     8.61909e-02
 h25bf                                  1      0.0000       0.00000       A     1.10384e-01     3.90095e-02
 h26bf                                  1      0.0000       0.00000       A     1.10570e-01     4.04157e-02
 h27bf                                  1      0.0000       0.00000       A     2.59990e-01     8.73194e-02
 h28bf                                  1      0.0000       0.00000       A     2.59990e-01     8.73194e-02
 h29bf                                  1      0.0000       0.00000       A     2.59990e-01     8.73194e-02
 h30bf                                  1      0.0000       0.00000       A     2.62586e-01     6.77372e-02
 h31bf                                  1      0.0000       0.00000       A     2.62513e-01     6.74259e-02
 h32bf                                  1      0.0000       0.00000       A     2.62472e-01     6.74738e-02
 h33bf                                  1      0.0000       0.00000       A     2.62472e-01     6.74738e-02
 h34bf                                  1      0.0000       0.00000       A     2.62502e-01     6.73461e-02
 h35bf                                  1      0.0000       0.00000       A     2.62496e-01     6.71211e-02
 h36bf                                  1      0.0000       0.00000       A     2.62435e-01     6.74259e-02
 h37bf                                  1      0.0000       0.00000       A     2.62582e-01     6.76350e-02
 h38bf                                  1      0.0000       0.00000       A     1.10384e-01     3.90095e-02

[ moleculetype ]
;name             nrexcl
 CAT-13a               3

[ atoms ]
;       nr            type      resi   res      atom      cgnr      charge          mass ; qtot
         1            c0bf         1   UNL        c0         1     0.07169       12.0110 ; qtot    0.072
         2            n1bf         1   UNL        n1         2    -0.59121       14.0070 ; qtot   -0.520
         3            c2bf         1   UNL        c2         3     0.94802       12.0110 ; qtot    0.428
         4            n3bf         1   UNL        n3         4    -0.59191       14.0070 ; qtot   -0.163
         5            n4bf         1   UNL        n4         5    -0.63379       14.0070 ; qtot   -0.797
         6            c5bf         1   UNL        c5         6     0.07094       12.0110 ; qtot   -0.726
         7            c6bf         1   UNL        c6         7    -0.08998       12.0110 ; qtot   -0.816
         8            c7bf         1   UNL        c7         8    -0.12668       12.0110 ; qtot   -0.943
         9            c8bf         1   UNL        c8         9    -0.07443       12.0110 ; qtot   -1.017
        10            c9bf         1   UNL        c9        10    -0.09867       12.0110 ; qtot   -1.116
        11           c10bf         1   UNL       c10        11    -0.09361       12.0110 ; qtot   -1.210
        12           c11bf         1   UNL       c11        12    -0.02968       12.0110 ; qtot   -1.239
        13           c12bf         1   UNL       c12        13    -0.02653       12.0110 ; qtot   -1.266
        14           c13bf         1   UNL       c13        14    -0.10326       12.0110 ; qtot   -1.369
        15           c14bf         1   UNL       c14        15    -0.10402       12.0110 ; qtot   -1.473
        16           c15bf         1   UNL       c15        16    -0.09512       12.0110 ; qtot   -1.568
        17           c16bf         1   UNL       c16        17     0.12011       12.0110 ; qtot   -1.448
        18          cl17bf         1   UNL      cl17        18    -0.20970       35.4530 ; qtot   -1.658
        19           c18bf         1   UNL       c18        19    -0.09584       12.0110 ; qtot   -1.754
        20           c19bf         1   UNL       c19        20    -0.06280       12.0110 ; qtot   -1.816
        21           c20bf         1   UNL       c20        21     0.53676       12.0110 ; qtot   -1.280
        22           o21bf         1   UNL       o21        22    -0.38085       15.9990 ; qtot   -1.661
        23           h22bf         1   UNL       h22        23     0.08969        1.0080 ; qtot   -1.571
        24           h23bf         1   UNL       h23        24     0.08969        1.0080 ; qtot   -1.481
        25           h24bf         1   UNL       h24        25     0.08969        1.0080 ; qtot   -1.391
        26           h25bf         1   UNL       h25        26     0.38402        1.0080 ; qtot   -1.007
        27           h26bf         1   UNL       h26        27     0.40956        1.0080 ; qtot   -0.598
        28           h27bf         1   UNL       h27        28     0.06966        1.0080 ; qtot   -0.528
        29           h28bf         1   UNL       h28        29     0.06966        1.0080 ; qtot   -0.459
        30           h29bf         1   UNL       h29        30     0.06966        1.0080 ; qtot   -0.389
        31           h30bf         1   UNL       h30        31     0.12747        1.0080 ; qtot   -0.261
        32           h31bf         1   UNL       h31        32     0.12066        1.0080 ; qtot   -0.141
        33           h32bf         1   UNL       h32        33     0.11650        1.0080 ; qtot   -0.024
        34           h33bf         1   UNL       h33        34     0.11993        1.0080 ; qtot    0.096
        35           h34bf         1   UNL       h34        35     0.12261        1.0080 ; qtot    0.218
        36           h35bf         1   UNL       h35        36     0.13516        1.0080 ; qtot    0.353
        37           h36bf         1   UNL       h36        37     0.13341        1.0080 ; qtot    0.487
        38           h37bf         1   UNL       h37        38     0.12914        1.0080 ; qtot    0.616
        39           h38bf         1   UNL       h38        39     0.38405        1.0080 ; qtot    1.000

[ bonds ]
;       ai        aj funct               r               k
         1         2     1        0.146714   195444.487109
         1        23     1        0.109021   312395.586670
         1        24     1        0.109021   312395.586670
         1        25     1        0.109021   312395.586670
         2         3     1        0.135566   306947.882812
         2        21     1        0.142312   150490.006787
         3         4     1        0.133064   418457.535107
         3         5     1        0.133317   386890.629004
         4        26     1        0.101330   425081.325000
         4        39     1        0.101330   425081.325000
         5         6     1        0.148736   142961.577563
         5        27     1        0.101316   425507.079688
         6         7     1        0.153637   168803.050977
         6         8     1        0.152372   165561.715063
         6        21     1        0.154462   129545.835913
         7        28     1        0.109180   308443.463623
         7        29     1        0.109180   308443.463623
         7        30     1        0.109180   308443.463623
         8         9     1        0.140080   292511.805957
         8        20     1        0.139901   295539.894238
         9        10     1        0.139675   314612.156689
         9        31     1        0.108557   320316.202051
        10        11     1        0.139586   316123.468359
        10        32     1        0.108612   320061.265088
        11        12     1        0.140531   285804.382031
        11        33     1        0.108587   318592.753613
        12        13     1        0.148301   214182.660327
        12        20     1        0.140403   286873.952783
        13        14     1        0.140642   283730.615527
        13        19     1        0.140548   284644.231152
        14        15     1        0.139639   316467.172314
        14        34     1        0.108557   319942.849512
        15        16     1        0.139818   306197.015186
        15        35     1        0.108593   321221.901172
        16        17     1        0.139667   296743.100684
        16        36     1        0.108450   326068.844531
        17        18     1        0.175898   146278.069189
        17        19     1        0.139434   307507.503027
        19        37     1        0.108450   323511.456250
        20        38     1        0.108525   319392.422656
        21        22     1        0.120380   719903.371094

[ angles ]
;       ai        aj        ak funct           theta             cth
         1         2         3     1      126.571388      467.132817
         1         2        21     1      123.251205      531.091114
         2         1        23     1      109.240211      484.420004
         2         1        24     1      109.240211      484.420004
         2         1        25     1      109.240211      484.420004
         2         3         4     1      123.759987      625.684461
         2         3         5     1      111.347900      588.315882
         2        21         6     1      106.575974      167.360000
         2        21        22     1      124.651810      650.562458
         3         2        21     1      109.824852      829.647183
         3         4        26     1      121.315735      451.251097
         3         4        39     1      121.315735      451.251097
         3         5         6     1      111.887840      628.417060
         3         5        27     1      123.420387      430.220106
         4         3         5     1      125.427292      617.064027
         5         6         7     1      110.383568      625.663904
         5         6         8     1      110.746597      605.395611
         5         6        21     1      100.619865      335.383773
         6         5        27     1      121.487633      369.303982
         6         7        28     1      110.133301      481.951044
         6         7        29     1      110.133301      481.951044
         6         7        30     1      110.133301      481.951044
         6         8         9     1      120.161758      487.213061
         6         8        20     1      119.979263      440.391218
         6        21        22     1      127.431381      363.245526
         7         6         8     1      113.766090      625.849303
         7         6        21     1      109.866089      621.591501
         8         6        21     1      111.513512      596.641490
         8         9        10     1      119.683640      676.775279
         8         9        31     1      120.538620      411.561737
         8        20        12     1      121.142357      665.627501
         8        20        38     1      119.882004      408.894258
         9         8        20     1      119.635597      675.822043
         9        10        11     1      120.381470      722.025569
         9        10        32     1      119.831955      434.062580
        10         9        31     1      119.719421      426.538613
        10        11        12     1      120.438126      704.284045
        10        11        33     1      119.753983      429.862651
        11        10        32     1      119.786880      438.147432
        11        12        13     1      120.854149      514.556474
        11        12        20     1      118.342239      660.838272
        12        11        33     1      119.774094      427.878162
        12        13        14     1      120.944580      503.462419
        12        13        19     1      120.426231      481.721242
        12        20        38     1      118.974442      421.664983
        13        12        20     1      120.806297      420.346598
        13        14        15     1      120.709496      710.226339
        13        14        34     1      119.625290      429.265114
        13        19        17     1      119.954468      654.295153
        13        19        37     1      120.525940      413.949137
        14        13        19     1      118.518814      610.093928
        14        15        16     1      120.716507      706.259979
        14        15        35     1      119.854904      434.295638
        15        14        34     1      119.665451      434.119208
        15        16        17     1      118.458839      608.116654
        15        16        36     1      121.243332      419.806776
        16        15        35     1      119.403763      439.510571
        16        17        18     1      119.263100      362.742700
        16        17        19     1      121.578903      646.790308
        17        16        36     1      120.373581      408.925573
        17        19        37     1      119.578125      413.311731
        18        17        19     1      119.060081      368.288051
        23         1        24     1      109.820786      349.271620
        23         1        25     1      109.820786      349.271620
        24         1        25     1      109.820786      349.271620
        26         4        39     1      117.429977      314.388120
        28         7        29     1      108.763489      357.806983
        28         7        30     1      108.763489      357.806983
        29         7        30     1      108.763489      357.806983

[ dihedrals ] ; propers for gromacs 4.5 or higher, use funct 9
;       ai        aj        ak        al funct           phase               k        pn
         1         2         3         4     9        0.000000        1.599495         1
         1         2         3         4     9      180.000000        7.578128         2
         1         2         3         4     9        0.000000       -0.093223         3
         1         2         3         4     9      180.000000       -0.115320         4
         1         2         3         5     9        0.000000       -2.678837         1
         1         2         3         5     9      180.000000        5.937889         2
         1         2         3         5     9        0.000000       -0.199140         3
         1         2         3         5     9      180.000000        0.031366         4
         1         2        21         6     9        0.000000       -1.219345         1
         1         2        21         6     9      180.000000        5.884314         2
         1         2        21         6     9        0.000000        0.173491         3
         1         2        21         6     9      180.000000       -0.137396         4
         1         2        21        22     9        0.000000       -0.509645         1
         1         2        21        22     9      180.000000        9.165561         2
         1         2        21        22     9        0.000000       -0.373602         3
         1         2        21        22     9      180.000000        0.266068         4
         2         3         4        26     9        0.000000       -0.591063         1
         2         3         4        26     9      180.000000        6.284744         2
         2         3         4        26     9        0.000000        0.292040         3
         2         3         4        26     9      180.000000       -0.656689         4
         2         3         4        39     9        0.000000       -0.591065         1
         2         3         4        39     9      180.000000        6.284745         2
         2         3         4        39     9        0.000000        0.292040         3
         2         3         4        39     9      180.000000       -0.656689         4
         2         3         5         6     9        0.000000       -1.355308         1
         2         3         5         6     9      180.000000       22.244680         2
         2         3         5         6     9        0.000000       -1.395304         3
         2         3         5         6     9      180.000000       -2.644817         4
         2         3         5        27     9        0.000000       -0.293086         1
         2         3         5        27     9      180.000000        8.549706         2
         2         3         5        27     9        0.000000        0.135760         3
         2         3         5        27     9      180.000000       -0.789286         4
         2        21         6         5     9        0.000000        1.358140         1
         2        21         6         5     9      180.000000        8.078062         2
         2        21         6         5     9        0.000000       -0.257776         3
         2        21         6         5     9      180.000000       -0.470912         4
         2        21         6         7     9        0.000000       -1.234617         1
         2        21         6         7     9      180.000000        1.560404         2
         2        21         6         7     9        0.000000        0.150697         3
         2        21         6         7     9      180.000000        0.626469         4
         2        21         6         8     9        0.000000        0.819132         1
         2        21         6         8     9      180.000000        0.517005         2
         2        21         6         8     9        0.000000        0.303681         3
         2        21         6         8     9      180.000000        0.805609         4
         3         2         1        23     9        0.000000        0.018151         1
         3         2         1        23     9      180.000000        0.003520         2
         3         2         1        23     9        0.000000        0.166582         3
         3         2         1        23     9      180.000000       -0.014427         4
         3         2         1        24     9        0.000000        0.018151         1
         3         2         1        24     9      180.000000        0.003520         2
         3         2         1        24     9        0.000000        0.166582         3
         3         2         1        24     9      180.000000       -0.014427         4
         3         2         1        25     9        0.000000        0.018151         1
         3         2         1        25     9      180.000000        0.003520         2
         3         2         1        25     9        0.000000        0.166582         3
         3         2         1        25     9      180.000000       -0.014427         4
         3         2        21         6     9        0.000000       -3.058741         1
         3         2        21         6     9      180.000000       10.889611         2
         3         2        21         6     9        0.000000       -1.388467         3
         3         2        21         6     9      180.000000       -0.358127         4
         3         2        21        22     9        0.000000        1.332499         1
         3         2        21        22     9      180.000000       16.188610         2
         3         2        21        22     9        0.000000       -0.442884         3
         3         2        21        22     9      180.000000       -0.789704         4
         3         5         6         7     9        0.000000       -2.768972         1
         3         5         6         7     9      180.000000        1.568732         2
         3         5         6         7     9        0.000000        0.300491         3
         3         5         6         7     9      180.000000        0.170491         4
         3         5         6         8     9        0.000000        0.080981         1
         3         5         6         8     9      180.000000        0.629900         2
         3         5         6         8     9        0.000000        0.304295         3
         3         5         6         8     9      180.000000        0.258830         4
         3         5         6        21     9        0.000000       -1.765756         1
         3         5         6        21     9      180.000000        6.040395         2
         3         5         6        21     9        0.000000       -0.326813         3
         3         5         6        21     9      180.000000       -1.523923         4
         4         3         2        21     9        0.000000        1.195590         1
         4         3         2        21     9      180.000000       12.813114         2
         4         3         2        21     9        0.000000       -0.308629         3
         4         3         2        21     9      180.000000       -0.733041         4
         4         3         5         6     9        0.000000        2.391855         1
         4         3         5         6     9      180.000000       17.699272         2
         4         3         5         6     9        0.000000        0.791862         3
         4         3         5         6     9      180.000000       -1.913900         4
         4         3         5        27     9        0.000000       -0.900632         1
         4         3         5        27     9      180.000000        7.955321         2
         4         3         5        27     9        0.000000        0.387596         3
         4         3         5        27     9      180.000000       -0.438659         4
         5         3         2        21     9        0.000000       -1.499485         1
         5         3         2        21     9      180.000000       14.829929         2
         5         3         2        21     9        0.000000       -2.744612         3
         5         3         2        21     9      180.000000       -1.338069         4
         5         3         4        26     9        0.000000       -1.800623         1
         5         3         4        26     9      180.000000        6.656446         2
         5         3         4        26     9        0.000000       -0.017695         3
         5         3         4        26     9      180.000000       -0.501411         4
         5         3         4        39     9        0.000000       -1.800623         1
         5         3         4        39     9      180.000000        6.656447         2
         5         3         4        39     9        0.000000       -0.017696         3
         5         3         4        39     9      180.000000       -0.501411         4
         5         6         7        28     9        0.000000       -0.089990         1
         5         6         7        28     9      180.000000       -0.012746         2
         5         6         7        28     9        0.000000        0.656510         3
         5         6         7        28     9      180.000000       -0.009590         4
         5         6         7        29     9        0.000000       -0.089990         1
         5         6         7        29     9      180.000000       -0.012746         2
         5         6         7        29     9        0.000000        0.656510         3
         5         6         7        29     9      180.000000       -0.009590         4
         5         6         7        30     9        0.000000       -0.089990         1
         5         6         7        30     9      180.000000       -0.012746         2
         5         6         7        30     9        0.000000        0.656510         3
         5         6         7        30     9      180.000000       -0.009590         4
         5         6         8         9     9        0.000000        0.119721         1
         5         6         8         9     9      180.000000        1.216354         2
         5         6         8         9     9        0.000000        0.128339         3
         5         6         8         9     9      180.000000        0.144015         4
         5         6         8        20     9        0.000000        0.261369         1
         5         6         8        20     9      180.000000        1.240512         2
         5         6         8        20     9        0.000000        0.050033         3
         5         6         8        20     9      180.000000        0.130320         4
         5         6        21        22     9        0.000000        7.200586         1
         5         6        21        22     9      180.000000        5.147952         2
         5         6        21        22     9        0.000000       -0.013322         3
         5         6        21        22     9      180.000000        0.380709         4
         6         8         9        10     9        0.000000        0.123019         1
         6         8         9        10     9      180.000000       14.972721         2
         6         8         9        10     9        0.000000       -0.309120         3
         6         8         9        10     9      180.000000       -0.156080         4
         6         8         9        31     9        0.000000       -0.031300         1
         6         8         9        31     9      180.000000       12.700981         2
         6         8         9        31     9        0.000000       -0.368110         3
         6         8         9        31     9      180.000000        0.174382         4
         6         8        20        12     9        0.000000        0.170958         1
         6         8        20        12     9      180.000000       14.872477         2
         6         8        20        12     9        0.000000       -0.248143         3
         6         8        20        12     9      180.000000       -0.237580         4
         6         8        20        38     9        0.000000       -0.055246         1
         6         8        20        38     9      180.000000       12.765054         2
         6         8        20        38     9        0.000000       -0.349223         3
         6         8        20        38     9      180.000000        0.191733         4
         7         6         5        27     9        0.000000       -0.449901         1
         7         6         5        27     9      180.000000        0.649185         2
         7         6         5        27     9        0.000000        0.199033         3
         7         6         5        27     9      180.000000       -0.013806         4
         7         6         8         9     9        0.000000       -0.068196         1
         7         6         8         9     9      180.000000        0.910076         2
         7         6         8         9     9        0.000000        0.135875         3
         7         6         8         9     9      180.000000        0.104452         4
         7         6         8        20     9        0.000000       -0.133501         1
         7         6         8        20     9      180.000000        1.000187         2
         7         6         8        20     9        0.000000        0.082958         3
         7         6         8        20     9      180.000000        0.081618         4
         7         6        21        22     9        0.000000       -0.197054         1
         7         6        21        22     9      180.000000        1.272710         2
         7         6        21        22     9        0.000000       -0.572871         3
         7         6        21        22     9      180.000000        0.502770         4
         8         6         5        27     9        0.000000        1.014393         1
         8         6         5        27     9      180.000000        0.500894         2
         8         6         5        27     9        0.000000        0.164572         3
         8         6         5        27     9      180.000000       -0.051273         4
         8         6         7        28     9        0.000000       -0.089423         1
         8         6         7        28     9      180.000000        0.019833         2
         8         6         7        28     9        0.000000        0.673743         3
         8         6         7        28     9      180.000000        0.068908         4
         8         6         7        29     9        0.000000       -0.089423         1
         8         6         7        29     9      180.000000        0.019833         2
         8         6         7        29     9        0.000000        0.673743         3
         8         6         7        29     9      180.000000        0.068908         4
         8         6         7        30     9        0.000000       -0.089423         1
         8         6         7        30     9      180.000000        0.019833         2
         8         6         7        30     9        0.000000        0.673743         3
         8         6         7        30     9      180.000000        0.068908         4
         8         6        21        22     9        0.000000       -0.388661         1
         8         6        21        22     9      180.000000        1.111946         2
         8         6        21        22     9        0.000000       -0.389328         3
         8         6        21        22     9      180.000000        0.460522         4
         8         9        10        11     9        0.000000        0.097962         1
         8         9        10        11     9      180.000000       18.748392         2
         8         9        10        11     9        0.000000       -1.525190         3
         8         9        10        11     9      180.000000       -0.471677         4
         8         9        10        32     9        0.000000        0.037657         1
         8         9        10        32     9      180.000000       15.133907         2
         8         9        10        32     9        0.000000       -0.608764         3
         8         9        10        32     9      180.000000        0.058367         4
         8        20        12        11     9        0.000000       -0.074767         1
         8        20        12        11     9      180.000000       18.815363         2
         8        20        12        11     9        0.000000       -1.536062         3
         8        20        12        11     9      180.000000       -0.496914         4
         8        20        12        13     9        0.000000        0.245687         1
         8        20        12        13     9      180.000000       16.748182         2
         8        20        12        13     9        0.000000       -0.162900         3
         8        20        12        13     9      180.000000       -0.401348         4
         9         8         6        21     9        0.000000       -0.221705         1
         9         8         6        21     9      180.000000       -0.668774         2
         9         8         6        21     9        0.000000        0.177456         3
         9         8         6        21     9      180.000000        0.144654         4
         9         8        20        12     9        0.000000       -0.057111         1
         9         8        20        12     9      180.000000       18.972486         2
         9         8        20        12     9        0.000000       -1.490960         3
         9         8        20        12     9      180.000000       -0.426525         4
         9         8        20        38     9        0.000000        0.020099         1
         9         8        20        38     9      180.000000       14.598278         2
         9         8        20        38     9        0.000000       -0.729791         3
         9         8        20        38     9      180.000000        0.055915         4
         9        10        11        12     9        0.000000       -0.031162         1
         9        10        11        12     9      180.000000       18.771575         2
         9        10        11        12     9        0.000000       -1.480722         3
         9        10        11        12     9      180.000000       -0.329426         4
         9        10        11        33     9        0.000000        0.075830         1
         9        10        11        33     9      180.000000       14.586664         2
         9        10        11        33     9        0.000000       -0.736277         3
         9        10        11        33     9      180.000000        0.169579         4
        10         9         8        20     9        0.000000       -0.111027         1
        10         9         8        20     9      180.000000       19.088660         2
        10         9         8        20     9        0.000000       -1.476712         3
        10         9         8        20     9      180.000000       -0.469087         4
        10        11        12        13     9        0.000000        0.230394         1
        10        11        12        13     9      180.000000       16.138719         2
        10        11        12        13     9        0.000000       -0.170315         3
        10        11        12        13     9      180.000000       -0.239830         4
        10        11        12        20     9        0.000000       -0.189845         1
        10        11        12        20     9      180.000000       18.530884         2
        10        11        12        20     9        0.000000       -1.471013         3
        10        11        12        20     9      180.000000       -0.323397         4
        11        10         9        31     9        0.000000        0.039481         1
        11        10         9        31     9      180.000000       14.632263         2
        11        10         9        31     9        0.000000       -0.647757         3
        11        10         9        31     9      180.000000        0.080536         4
        11        12        13        14     9        0.000000       -0.007674         1
        11        12        13        14     9      180.000000        3.330937         2
        11        12        13        14     9        0.000000        0.042995         3
        11        12        13        14     9      180.000000       -0.020547         4
        11        12        13        19     9        0.000000        0.012343         1
        11        12        13        19     9      180.000000        3.332869         2
        11        12        13        19     9        0.000000        0.008260         3
        11        12        13        19     9      180.000000       -0.011868         4
        11        12        20        38     9        0.000000       -0.132312         1
        11        12        20        38     9      180.000000       14.577763         2
        11        12        20        38     9        0.000000       -0.616905         3
        11        12        20        38     9      180.000000       -0.012702         4
        12        11        10        32     9        0.000000       -0.061812         1
        12        11        10        32     9      180.000000       14.749341         2
        12        11        10        32     9        0.000000       -0.605681         3
        12        11        10        32     9      180.000000        0.112692         4
        12        13        14        15     9        0.000000        0.305756         1
        12        13        14        15     9      180.000000       16.370784         2
        12        13        14        15     9        0.000000       -0.083573         3
        12        13        14        15     9      180.000000       -0.282910         4
        12        13        14        34     9        0.000000       -0.069394         1
        12        13        14        34     9      180.000000       13.412475         2
        12        13        14        34     9        0.000000       -0.191922         3
        12        13        14        34     9      180.000000        0.179051         4
        12        13        19        17     9        0.000000        0.228982         1
        12        13        19        17     9      180.000000       16.708031         2
        12        13        19        17     9        0.000000       -0.162579         3
        12        13        19        17     9      180.000000       -0.417023         4
        12        13        19        37     9        0.000000       -0.087783         1
        12        13        19        37     9      180.000000       13.235678         2
        12        13        19        37     9        0.000000       -0.212974         3
        12        13        19        37     9      180.000000        0.206124         4
        13        12        11        33     9        0.000000       -0.104975         1
        13        12        11        33     9      180.000000       13.346714         2
        13        12        11        33     9        0.000000       -0.223324         3
        13        12        11        33     9      180.000000        0.189275         4
        13        12        20        38     9        0.000000       -0.107029         1
        13        12        20        38     9      180.000000       13.334042         2
        13        12        20        38     9        0.000000       -0.158560         3
        13        12        20        38     9      180.000000        0.168095         4
        13        14        15        16     9        0.000000       -0.027105         1
        13        14        15        16     9      180.000000       18.923034         2
        13        14        15        16     9        0.000000       -1.503937         3
        13        14        15        16     9      180.000000       -0.356268         4
        13        14        15        35     9        0.000000       -0.082647         1
        13        14        15        35     9      180.000000       14.805088         2
        13        14        15        35     9        0.000000       -0.643495         3
        13        14        15        35     9      180.000000        0.073654         4
        13        19        17        16     9        0.000000       -0.008240         1
        13        19        17        16     9      180.000000       17.745278         2
        13        19        17        16     9        0.000000       -1.184654         3
        13        19        17        16     9      180.000000       -0.352119         4
        13        19        17        18     9        0.000000        0.356484         1
        13        19        17        18     9      180.000000       19.187195         2
        13        19        17        18     9        0.000000        0.423572         3
        13        19        17        18     9      180.000000       -0.719313         4
        14        13        12        20     9        0.000000       -0.001912         1
        14        13        12        20     9      180.000000        3.416554         2
        14        13        12        20     9        0.000000        0.028544         3
        14        13        12        20     9      180.000000       -0.026860         4
        14        13        19        17     9        0.000000       -0.226810         1
        14        13        19        17     9      180.000000       18.460100         2
        14        13        19        17     9        0.000000       -1.564517         3
        14        13        19        17     9      180.000000       -0.363342         4
        14        13        19        37     9        0.000000       -0.081612         1
        14        13        19        37     9      180.000000       14.063211         2
        14        13        19        37     9        0.000000       -0.651845         3
        14        13        19        37     9      180.000000        0.074764         4
        14        15        16        17     9        0.000000       -0.014672         1
        14        15        16        17     9      180.000000       18.658773         2
        14        15        16        17     9        0.000000       -1.423404         3
        14        15        16        17     9      180.000000       -0.430664         4
        14        15        16        36     9        0.000000        0.015297         1
        14        15        16        36     9      180.000000       13.921456         2
        14        15        16        36     9        0.000000       -0.702882         3
        14        15        16        36     9      180.000000        0.159191         4
        15        14        13        19     9        0.000000       -0.178260         1
        15        14        13        19     9      180.000000       18.281466         2
        15        14        13        19     9        0.000000       -1.464057         3
        15        14        13        19     9      180.000000       -0.353057         4
        15        16        17        18     9        0.000000        0.384560         1
        15        16        17        18     9      180.000000       19.125338         2
        15        16        17        18     9        0.000000        0.328218         3
        15        16        17        18     9      180.000000       -0.554486         4
        15        16        17        19     9        0.000000       -0.060650         1
        15        16        17        19     9      180.000000       17.644798         2
        15        16        17        19     9        0.000000       -1.259503         3
        15        16        17        19     9      180.000000       -0.384797         4
        16        15        14        34     9        0.000000        0.073505         1
        16        15        14        34     9      180.000000       14.891523         2
        16        15        14        34     9        0.000000       -0.707692         3
        16        15        14        34     9      180.000000        0.130542         4
        16        17        19        37     9        0.000000        0.006367         1
        16        17        19        37     9      180.000000       13.721602         2
        16        17        19        37     9        0.000000       -0.619973         3
        16        17        19        37     9      180.000000        0.133122         4
        17        16        15        35     9        0.000000        0.036286         1
        17        16        15        35     9      180.000000       14.441092         2
        17        16        15        35     9        0.000000       -0.533853         3
        17        16        15        35     9      180.000000        0.102825         4
        18        17        16        36     9        0.000000        0.203003         1
        18        17        16        36     9      180.000000       13.237178         2
        18        17        16        36     9        0.000000       -0.115367         3
        18        17        16        36     9      180.000000        0.239543         4
        18        17        19        37     9        0.000000        0.138200         1
        18        17        19        37     9      180.000000       13.815334         2
        18        17        19        37     9        0.000000       -0.095173         3
        18        17        19        37     9      180.000000        0.212289         4
        19        13        12        20     9        0.000000        0.031824         1
        19        13        12        20     9      180.000000        3.427049         2
        19        13        12        20     9        0.000000       -0.012405         3
        19        13        12        20     9      180.000000       -0.016413         4
        19        13        14        34     9        0.000000       -0.117209         1
        19        13        14        34     9      180.000000       14.303306         2
        19        13        14        34     9        0.000000       -0.626107         3
        19        13        14        34     9      180.000000        0.027459         4
        19        17        16        36     9        0.000000        0.011133         1
        19        17        16        36     9      180.000000       13.432437         2
        19        17        16        36     9        0.000000       -0.533136         3
        19        17        16        36     9      180.000000        0.083311         4
        20         8         6        21     9        0.000000       -0.579685         1
        20         8         6        21     9      180.000000       -0.555558         2
        20         8         6        21     9        0.000000        0.153530         3
        20         8         6        21     9      180.000000        0.146207         4
        20         8         9        31     9        0.000000        0.029927         1
        20         8         9        31     9      180.000000       14.579024         2
        20         8         9        31     9        0.000000       -0.686079         3
        20         8         9        31     9      180.000000        0.029530         4
        20        12        11        33     9        0.000000       -0.133572         1
        20        12        11        33     9      180.000000       14.623744         2
        20        12        11        33     9        0.000000       -0.681343         3
        20        12        11        33     9      180.000000        0.042842         4
        21         2         1        23     9        0.000000       -0.065747         1
        21         2         1        23     9      180.000000       -0.072982         2
        21         2         1        23     9        0.000000       -0.314766         3
        21         2         1        23     9      180.000000        0.050099         4
        21         2         1        24     9        0.000000       -0.065747         1
        21         2         1        24     9      180.000000       -0.072982         2
        21         2         1        24     9        0.000000       -0.314766         3
        21         2         1        24     9      180.000000        0.050099         4
        21         2         1        25     9        0.000000       -0.065747         1
        21         2         1        25     9      180.000000       -0.072982         2
        21         2         1        25     9        0.000000       -0.314766         3
        21         2         1        25     9      180.000000        0.050099         4
        21         6         5        27     9        0.000000       -0.583619         1
        21         6         5        27     9      180.000000       -0.584316         2
        21         6         5        27     9        0.000000        0.170077         3
        21         6         5        27     9      180.000000        0.149540         4
        21         6         7        28     9        0.000000       -0.015262         1
        21         6         7        28     9      180.000000        0.047171         2
        21         6         7        28     9        0.000000        0.397156         3
        21         6         7        28     9      180.000000        0.014488         4
        21         6         7        29     9        0.000000       -0.015262         1
        21         6         7        29     9      180.000000        0.047171         2
        21         6         7        29     9        0.000000        0.397156         3
        21         6         7        29     9      180.000000        0.014488         4
        21         6         7        30     9        0.000000       -0.015262         1
        21         6         7        30     9      180.000000        0.047171         2
        21         6         7        30     9        0.000000        0.397156         3
        21         6         7        30     9      180.000000        0.014488         4
        31         9        10        32     9        0.000000       -0.144611         1
        31         9        10        32     9      180.000000       11.860347         2
        31         9        10        32     9        0.000000       -0.716388         3
        31         9        10        32     9      180.000000        0.303466         4
        32        10        11        33     9        0.000000       -0.173564         1
        32        10        11        33     9      180.000000       11.938520         2
        32        10        11        33     9        0.000000       -0.730808         3
        32        10        11        33     9      180.000000        0.326092         4
        34        14        15        35     9        0.000000       -0.202412         1
        34        14        15        35     9      180.000000       12.044166         2
        34        14        15        35     9        0.000000       -0.720039         3
        34        14        15        35     9      180.000000        0.322236         4
        35        15        16        36     9        0.000000       -0.177599         1
        35        15        16        36     9      180.000000       11.407348         2
        35        15        16        36     9        0.000000       -0.617575         3
        35        15        16        36     9      180.000000        0.288706         4

[ dihedrals ] ; impropers
;       ai        aj        ak        al funct           phase               k        pn
         3         2         4         5     4      180.000000       11.395335         2
         3         4         5         2     4      180.000000       11.395335         2
         3         5         2         4     4      180.000000       11.395335         2
        21         2         6        22     4      180.000000       27.893333         2
        21         6        22         2     4      180.000000       27.893333         2
        21        22         2         6     4      180.000000       27.893333         2

[ pairs ]
;       ai        aj funct
         1         4     1
         1         5     1
         1         6     1
         1        22     1
         2         7     1
         2         8     1
         2        26     1
         2        27     1
         2        39     1
         3         7     1
         3         8     1
         3        22     1
         3        23     1
         3        24     1
         3        25     1
         4         6     1
         4        21     1
         4        27     1
         5         9     1
         5        20     1
         5        22     1
         5        26     1
         5        28     1
         5        29     1
         5        30     1
         5        39     1
         6        10     1
         6        12     1
         6        31     1
         6        38     1
         7         9     1
         7        20     1
         7        22     1
         7        27     1
         8        11     1
         8        13     1
         8        22     1
         8        27     1
         8        28     1
         8        29     1
         8        30     1
         8        32     1
         9        12     1
         9        21     1
         9        33     1
         9        38     1
        10        13     1
        10        20     1
        11        14     1
        11        19     1
        11        31     1
        11        38     1
        12        15     1
        12        17     1
        12        32     1
        12        34     1
        12        37     1
        13        16     1
        13        18     1
        13        33     1
        13        35     1
        13        38     1
        14        17     1
        14        20     1
        14        36     1
        14        37     1
        15        18     1
        15        19     1
        16        34     1
        16        37     1
        17        35     1
        18        36     1
        18        37     1
        19        20     1
        19        34     1
        19        36     1
        20        21     1
        20        31     1
        20        33     1
        21        23     1
        21        24     1
        21        25     1
        21        27     1
        21        28     1
        21        29     1
        21        30     1
        31        32     1
        32        33     1
        34        35     1
        35        36     1
