; ITP file created by ByteFF-ML, 2026-02-21 08:14:36.541899

[ atomtypes ]
;name           bonded.type        at.num        mass        charge   ptype           sigma         epsilon
 c0bf                                   6      0.0000       0.00000       A     3.39802e-01     4.50289e-01
 c1bf                                   6      0.0000       0.00000       A     3.31486e-01     4.13245e-01
 c2bf                                   6      0.0000       0.00000       A     3.31485e-01     4.13586e-01
 n3bf                                   7      0.0000       0.00000       A     3.38277e-01     3.93086e-01
 c4bf                                   6      0.0000       0.00000       A     3.31474e-01     4.13553e-01
 c5bf                                   6      0.0000       0.00000       A     3.31265e-01     4.13123e-01
 c6bf                                   6      0.0000       0.00000       A     3.31402e-01     4.13202e-01
 c7bf                                   6      0.0000       0.00000       A     3.31504e-01     4.12557e-01
 c8bf                                   6      0.0000       0.00000       A     3.31499e-01     4.13443e-01
 c9bf                                   6      0.0000       0.00000       A     3.31488e-01     4.13866e-01
 c10bf                                  6      0.0000       0.00000       A     3.31648e-01     4.15198e-01
 c11bf                                  6      0.0000       0.00000       A     3.39536e-01     4.48869e-01
 c12bf                                  6      0.0000       0.00000       A     3.39513e-01     4.48946e-01
 c13bf                                  6      0.0000       0.00000       A     3.39757e-01     4.48772e-01
 c14bf                                  6      0.0000       0.00000       A     3.39757e-01     4.48772e-01
 n15bf                                  7      0.0000       0.00000       A     3.26713e-01     6.48769e-01
 c16bf                                  6      0.0000       0.00000       A     3.31264e-01     4.10570e-01
 n17bf                                  7      0.0000       0.00000       A     3.36721e-01     4.77448e-01
 n18bf                                  7      0.0000       0.00000       A     3.18287e-01     7.03250e-01
 c19bf                                  6      0.0000       0.00000       A     3.39909e-01     4.52588e-01
 c20bf                                  6      0.0000       0.00000       A     3.31408e-01     4.15537e-01
 o21bf                                  8      0.0000       0.00000       A     3.04503e-01     6.16156e-01
 c22bf                                  6      0.0000       0.00000       A     3.31574e-01     4.14788e-01
 c23bf                                  6      0.0000       0.00000       A     3.31472e-01     4.13109e-01
 h24bf                                  1      0.0000       0.00000       A     2.60003e-01     8.72012e-02
 h25bf                                  1      0.0000       0.00000       A     2.60003e-01     8.72012e-02
 h26bf                                  1      0.0000       0.00000       A     2.60003e-01     8.72012e-02
 h27bf                                  1      0.0000       0.00000       A     2.53660e-01     6.74020e-02
 h28bf                                  1      0.0000       0.00000       A     2.53647e-01     6.70142e-02
 h29bf                                  1      0.0000       0.00000       A     2.62472e-01     6.74738e-02
 h30bf                                  1      0.0000       0.00000       A     2.62513e-01     6.74259e-02
 h31bf                                  1      0.0000       0.00000       A     2.62572e-01     6.77436e-02
 h32bf                                  1      0.0000       0.00000       A     2.59520e-01     8.50290e-02
 h33bf                                  1      0.0000       0.00000       A     2.60287e-01     8.57424e-02
 h34bf                                  1      0.0000       0.00000       A     2.60287e-01     8.57424e-02
 h35bf                                  1      0.0000       0.00000       A     2.60287e-01     8.57424e-02
 h36bf                                  1      0.0000       0.00000       A     2.60287e-01     8.57424e-02
 h37bf                                  1      0.0000       0.00000       A     1.10320e-01     4.03279e-02
 h38bf                                  1      0.0000       0.00000       A     1.10384e-01     3.90095e-02
 h39bf                                  1      0.0000       0.00000       A     2.42205e-01     8.61909e-02
 h40bf                                  1      0.0000       0.00000       A     2.42205e-01     8.61909e-02
 h41bf                                  1      0.0000       0.00000       A     2.42205e-01     8.61909e-02
 h42bf                                  1      0.0000       0.00000       A     2.62565e-01     6.76829e-02
 h43bf                                  1      0.0000       0.00000       A     2.62521e-01     6.75313e-02
 h44bf                                  1      0.0000       0.00000       A     1.10384e-01     3.90095e-02

[ moleculetype ]
;name             nrexcl
 CAT-17i               3

[ atoms ]
;       nr            type      resi   res      atom      cgnr      charge          mass ; qtot
         1            c0bf         1   UNL        c0         1    -0.04172       12.0110 ; qtot   -0.042
         2            c1bf         1   UNL        c1         2    -0.12718       12.0110 ; qtot   -0.169
         3            c2bf         1   UNL        c2         3     0.33092       12.0110 ; qtot    0.162
         4            n3bf         1   UNL        n3         4    -0.65789       14.0070 ; qtot   -0.496
         5            c4bf         1   UNL        c4         5     0.33254       12.0110 ; qtot   -0.163
         6            c5bf         1   UNL        c5         6    -0.08630       12.0110 ; qtot   -0.250
         7            c6bf         1   UNL        c6         7    -0.02108       12.0110 ; qtot   -0.271
         8            c7bf         1   UNL        c7         8    -0.09648       12.0110 ; qtot   -0.367
         9            c8bf         1   UNL        c8         9    -0.09643       12.0110 ; qtot   -0.464
        10            c9bf         1   UNL        c9        10    -0.07458       12.0110 ; qtot   -0.538
        11           c10bf         1   UNL       c10        11    -0.12404       12.0110 ; qtot   -0.662
        12           c11bf         1   UNL       c11        12     0.12041       12.0110 ; qtot   -0.542
        13           c12bf         1   UNL       c12        13    -0.16654       12.0110 ; qtot   -0.708
        14           c13bf         1   UNL       c13        14    -0.10388       12.0110 ; qtot   -0.812
        15           c14bf         1   UNL       c14        15    -0.10388       12.0110 ; qtot   -0.916
        16           n15bf         1   UNL       n15        16    -0.61445       14.0070 ; qtot   -1.531
        17           c16bf         1   UNL       c16        17     0.92602       12.0110 ; qtot   -0.605
        18           n17bf         1   UNL       n17        18    -0.58697       14.0070 ; qtot   -1.192
        19           n18bf         1   UNL       n18        19    -0.59326       14.0070 ; qtot   -1.785
        20           c19bf         1   UNL       c19        20     0.07261       12.0110 ; qtot   -1.712
        21           c20bf         1   UNL       c20        21     0.55423       12.0110 ; qtot   -1.158
        22           o21bf         1   UNL       o21        22    -0.39240       15.9990 ; qtot   -1.550
        23           c22bf         1   UNL       c22        23    -0.06309       12.0110 ; qtot   -1.613
        24           c23bf         1   UNL       c23        24    -0.06994       12.0110 ; qtot   -1.683
        25           h24bf         1   UNL       h24        25     0.04705        1.0080 ; qtot   -1.636
        26           h25bf         1   UNL       h25        26     0.04705        1.0080 ; qtot   -1.589
        27           h26bf         1   UNL       h26        27     0.04705        1.0080 ; qtot   -1.542
        28           h27bf         1   UNL       h27        28     0.02220        1.0080 ; qtot   -1.520
        29           h28bf         1   UNL       h28        29     0.02375        1.0080 ; qtot   -1.496
        30           h29bf         1   UNL       h29        30     0.11718        1.0080 ; qtot   -1.379
        31           h30bf         1   UNL       h30        31     0.11984        1.0080 ; qtot   -1.259
        32           h31bf         1   UNL       h31        32     0.12888        1.0080 ; qtot   -1.130
        33           h32bf         1   UNL       h32        33     0.10393        1.0080 ; qtot   -1.026
        34           h33bf         1   UNL       h33        34     0.08180        1.0080 ; qtot   -0.945
        35           h34bf         1   UNL       h34        35     0.08180        1.0080 ; qtot   -0.863
        36           h35bf         1   UNL       h35        36     0.08180        1.0080 ; qtot   -0.781
        37           h36bf         1   UNL       h36        37     0.08180        1.0080 ; qtot   -0.699
        38           h37bf         1   UNL       h37        38     0.41057        1.0080 ; qtot   -0.289
        39           h38bf         1   UNL       h38        39     0.38441        1.0080 ; qtot    0.096
        40           h39bf         1   UNL       h39        40     0.08926        1.0080 ; qtot    0.185
        41           h40bf         1   UNL       h40        41     0.08926        1.0080 ; qtot    0.274
        42           h41bf         1   UNL       h41        42     0.08926        1.0080 ; qtot    0.364
        43           h42bf         1   UNL       h42        43     0.13080        1.0080 ; qtot    0.494
        44           h43bf         1   UNL       h43        44     0.12126        1.0080 ; qtot    0.616
        45           h44bf         1   UNL       h44        45     0.38443        1.0080 ; qtot    1.000

[ bonds ]
;       ai        aj funct               r               k
         1         2     1        0.150924   207902.204102
         1        25     1        0.109418   300563.937451
         1        26     1        0.109418   300563.937451
         1        27     1        0.109418   300563.937451
         2         3     1        0.140270   278624.342822
         2        24     1        0.139804   305750.626514
         3         4     1        0.134002   314092.731885
         3        28     1        0.108907   311900.549805
         4         5     1        0.133644   327278.945996
         5         6     1        0.140743   272071.086426
         5        29     1        0.108815   314602.222754
         6         7     1        0.148061   216617.457715
         6        24     1        0.140344   287973.733936
         7         8     1        0.140567   284921.666309
         7        23     1        0.140415   286527.746191
         8         9     1        0.139603   315779.406885
         8        30     1        0.108594   318502.760840
         9        10     1        0.139655   314826.183203
         9        31     1        0.108618   319848.566504
        10        11     1        0.140053   293210.348047
        10        32     1        0.108541   320854.371094
        11        12     1        0.152262   166830.385889
        11        23     1        0.139868   296592.278516
        12        13     1        0.152416   168644.784741
        12        16     1        0.148913   139630.299951
        12        21     1        0.154577   128147.845166
        13        14     1        0.151266   194349.315405
        13        15     1        0.151266   194349.315405
        13        33     1        0.108537   319742.613037
        14        15     1        0.151225   199579.992139
        14        34     1        0.108483   323654.872656
        14        35     1        0.108483   323654.872656
        15        36     1        0.108483   323654.872656
        15        37     1        0.108483   323654.872656
        16        17     1        0.133302   386902.401611
        16        38     1        0.101337   424655.417090
        17        18     1        0.133058   418634.532812
        17        19     1        0.135493   307944.213135
        18        39     1        0.101328   425154.871875
        18        45     1        0.101328   425154.871875
        19        20     1        0.146737   195108.827344
        19        21     1        0.142426   148868.502490
        20        40     1        0.109021   312351.867139
        20        41     1        0.109021   312351.867139
        20        42     1        0.109021   312351.867139
        21        22     1        0.120460   715141.721680
        23        43     1        0.108523   319695.037402
        24        44     1        0.108689   316060.442773

[ angles ]
;       ai        aj        ak funct           theta             cth
         1         2         3     1      121.247948      481.715273
         1         2        24     1      121.713577      404.677698
         2         1        25     1      111.214828      478.738124
         2         1        26     1      111.214828      478.738124
         2         1        27     1      111.214828      478.738124
         2         3         4     1      124.152016      713.219799
         2         3        28     1      119.949417      396.629997
         2        24         6     1      120.498474      752.968437
         2        24        44     1      119.774757      423.474415
         3         2        24     1      116.952072      774.151214
         3         4         5     1      117.757156      684.449308
         4         3        28     1      115.969254      331.030845
         4         5         6     1      124.094200      729.620050
         4         5        29     1      116.038979      337.572176
         5         6         7     1      121.274734      554.226139
         5         6        24     1      116.814346      620.764418
         6         5        29     1      119.994751      408.686705
         6         7         8     1      120.862282      511.470346
         6         7        23     1      120.836403      424.066365
         6        24        44     1      119.840477      427.475474
         7         6        24     1      121.762497      442.554020
         7         8         9     1      120.417824      705.227386
         7         8        30     1      119.787704      429.169063
         7        23        11     1      121.175781      666.452094
         7        23        43     1      119.027931      421.296802
         8         7        23     1      118.355850      663.243484
         8         9        10     1      120.354919      724.479813
         8         9        31     1      119.794922      436.724312
         9         8        30     1      119.750404      430.330076
         9        10        11     1      119.710999      677.588381
         9        10        32     1      119.735275      425.147000
        10         9        31     1      119.842361      433.129102
        10        11        12     1      120.241966      490.003086
        10        11        23     1      119.589684      687.179928
        11        10        32     1      120.439598      409.425302
        11        12        13     1      114.064102      533.010738
        11        12        16     1      110.812096      603.925759
        11        12        21     1      111.595871      602.042333
        11        23        43     1      119.798691      407.978593
        12        11        23     1      120.049706      446.194175
        12        13        14     1      121.414719      410.920436
        12        13        15     1      121.414719      410.920436
        12        13        33     1      112.401169      424.131102
        12        16        17     1      111.918991      621.631020
        12        16        38     1      121.067909      366.714263
        12        21        19     1      106.404617      167.360000
        12        21        22     1      127.712059      357.779307
        13        12        16     1      110.691429      585.051792
        13        12        21     1      110.442825      625.809785
        13        14        15     1       59.965576      167.360000
        13        14        34     1      117.870682      377.010219
        13        14        35     1      117.870682      377.010219
        13        15        14     1       59.965576      167.360000
        13        15        36     1      117.870682      377.010219
        13        15        37     1      117.870682      377.010219
        14        13        15     1       60.013451      167.360000
        14        13        33     1      116.334984      367.698048
        14        15        36     1      118.112976      373.159798
        14        15        37     1      118.112976      373.159798
        15        13        33     1      116.334984      367.698048
        15        14        34     1      118.112976      373.159798
        15        14        35     1      118.112976      373.159798
        16        12        21     1      100.735207      334.101427
        16        17        18     1      125.425247      615.144530
        16        17        19     1      111.327232      587.108742
        17        16        38     1      123.480003      428.649734
        17        18        39     1      121.317368      450.542953
        17        18        45     1      121.317368      450.542953
        17        19        20     1      126.596352      465.851780
        17        19        21     1      109.854813      830.456710
        18        17        19     1      123.849709      628.052837
        19        20        40     1      109.233238      484.690058
        19        20        41     1      109.233238      484.690058
        19        20        42     1      109.233238      484.690058
        19        21        22     1      124.414818      651.466344
        20        19        21     1      123.154587      533.875425
        25         1        26     1      107.705322      361.842134
        25         1        27     1      107.705322      361.842134
        26         1        27     1      107.705322      361.842134
        34        14        35     1      114.508240      310.792335
        36        15        37     1      114.508240      310.792335
        39        18        45     1      117.449059      314.118256
        40        20        41     1      109.817101      349.345262
        40        20        42     1      109.817101      349.345262
        41        20        42     1      109.817101      349.345262

[ dihedrals ] ; propers for gromacs 4.5 or higher, use funct 9
;       ai        aj        ak        al funct           phase               k        pn
         1         2         3         4     9        0.000000        0.062578         1
         1         2         3         4     9      180.000000       15.383398         2
         1         2         3         4     9        0.000000       -0.120516         3
         1         2         3         4     9      180.000000       -0.318383         4
         1         2         3        28     9        0.000000       -0.235504         1
         1         2         3        28     9      180.000000       12.337565         2
         1         2         3        28     9        0.000000       -0.386711         3
         1         2         3        28     9      180.000000        0.262756         4
         1         2        24         6     9        0.000000        0.144053         1
         1         2        24         6     9      180.000000       15.882013         2
         1         2        24         6     9        0.000000       -0.060068         3
         1         2        24         6     9      180.000000       -0.186625         4
         1         2        24        44     9        0.000000       -0.300862         1
         1         2        24        44     9      180.000000       13.005923         2
         1         2        24        44     9        0.000000       -0.414066         3
         1         2        24        44     9      180.000000        0.344401         4
         2         3         4         5     9        0.000000        0.332413         1
         2         3         4         5     9      180.000000       21.850261         2
         2         3         4         5     9        0.000000       -0.742641         3
         2         3         4         5     9      180.000000       -0.199695         4
         2        24         6         5     9        0.000000       -0.214904         1
         2        24         6         5     9      180.000000       17.774271         2
         2        24         6         5     9        0.000000       -1.715082         3
         2        24         6         5     9      180.000000       -0.401856         4
         2        24         6         7     9        0.000000        0.342537         1
         2        24         6         7     9      180.000000       16.211319         2
         2        24         6         7     9        0.000000       -0.038721         3
         2        24         6         7     9      180.000000       -0.342481         4
         3         2         1        25     9        0.000000       -0.007586         1
         3         2         1        25     9      180.000000        0.001350         2
         3         2         1        25     9        0.000000       -0.033481         3
         3         2         1        25     9      180.000000       -0.007233         4
         3         2         1        26     9        0.000000       -0.007586         1
         3         2         1        26     9      180.000000        0.001350         2
         3         2         1        26     9        0.000000       -0.033481         3
         3         2         1        26     9      180.000000       -0.007233         4
         3         2         1        27     9        0.000000       -0.007586         1
         3         2         1        27     9      180.000000        0.001350         2
         3         2         1        27     9        0.000000       -0.033481         3
         3         2         1        27     9      180.000000       -0.007233         4
         3         2        24         6     9        0.000000        0.011710         1
         3         2        24         6     9      180.000000       18.231226         2
         3         2        24         6     9        0.000000       -1.526526         3
         3         2        24         6     9      180.000000       -0.402262         4
         3         2        24        44     9        0.000000       -0.026438         1
         3         2        24        44     9      180.000000       14.103662         2
         3         2        24        44     9        0.000000       -0.543261         3
         3         2        24        44     9      180.000000        0.161433         4
         3         4         5         6     9        0.000000        0.130584         1
         3         4         5         6     9      180.000000       23.283296         2
         3         4         5         6     9        0.000000       -0.708158         3
         3         4         5         6     9      180.000000       -0.163020         4
         3         4         5        29     9        0.000000        1.075474         1
         3         4         5        29     9      180.000000       20.980098         2
         3         4         5        29     9        0.000000        0.129935         3
         3         4         5        29     9      180.000000       -0.165841         4
         4         3         2        24     9        0.000000       -0.021833         1
         4         3         2        24     9      180.000000       16.789099         2
         4         3         2        24     9        0.000000       -0.657311         3
         4         3         2        24     9      180.000000       -0.353136         4
         4         5         6         7     9        0.000000        0.383600         1
         4         5         6         7     9      180.000000       15.023593         2
         4         5         6         7     9        0.000000        0.019357         3
         4         5         6         7     9      180.000000       -0.449904         4
         4         5         6        24     9        0.000000       -0.040240         1
         4         5         6        24     9      180.000000       16.852058         2
         4         5         6        24     9        0.000000       -0.681750         3
         4         5         6        24     9      180.000000       -0.306510         4
         5         4         3        28     9        0.000000        1.058861         1
         5         4         3        28     9      180.000000       20.081569         2
         5         4         3        28     9        0.000000        0.177036         3
         5         4         3        28     9      180.000000       -0.421106         4
         5         6         7         8     9        0.000000       -0.083173         1
         5         6         7         8     9      180.000000        2.668789         2
         5         6         7         8     9        0.000000        0.029930         3
         5         6         7         8     9      180.000000       -0.184778         4
         5         6         7        23     9        0.000000       -0.052824         1
         5         6         7        23     9      180.000000        2.833740         2
         5         6         7        23     9        0.000000        0.063365         3
         5         6         7        23     9      180.000000       -0.194489         4
         5         6        24        44     9        0.000000       -0.088862         1
         5         6        24        44     9      180.000000       13.510318         2
         5         6        24        44     9        0.000000       -0.688971         3
         5         6        24        44     9      180.000000        0.082848         4
         6         7         8         9     9        0.000000        0.247743         1
         6         7         8         9     9      180.000000       16.330625         2
         6         7         8         9     9        0.000000       -0.186845         3
         6         7         8         9     9      180.000000       -0.291201         4
         6         7         8        30     9        0.000000       -0.118639         1
         6         7         8        30     9      180.000000       13.427492         2
         6         7         8        30     9        0.000000       -0.249414         3
         6         7         8        30     9      180.000000        0.163952         4
         6         7        23        11     9        0.000000        0.322016         1
         6         7        23        11     9      180.000000       17.026165         2
         6         7        23        11     9        0.000000       -0.125802         3
         6         7        23        11     9      180.000000       -0.462036         4
         6         7        23        43     9        0.000000       -0.115196         1
         6         7        23        43     9      180.000000       13.394067         2
         6         7        23        43     9        0.000000       -0.162093         3
         6         7        23        43     9      180.000000        0.154633         4
         7         6         5        29     9        0.000000        0.070586         1
         7         6         5        29     9      180.000000       12.822688         2
         7         6         5        29     9        0.000000       -0.129796         3
         7         6         5        29     9      180.000000        0.190157         4
         7         6        24        44     9        0.000000       -0.022884         1
         7         6        24        44     9      180.000000       13.074759         2
         7         6        24        44     9        0.000000       -0.164237         3
         7         6        24        44     9      180.000000        0.159685         4
         7         8         9        10     9        0.000000       -0.020519         1
         7         8         9        10     9      180.000000       18.731426         2
         7         8         9        10     9        0.000000       -1.505300         3
         7         8         9        10     9      180.000000       -0.333275         4
         7         8         9        31     9        0.000000       -0.054914         1
         7         8         9        31     9      180.000000       14.788532         2
         7         8         9        31     9        0.000000       -0.599728         3
         7         8         9        31     9      180.000000        0.097461         4
         7        23        11        10     9        0.000000       -0.075934         1
         7        23        11        10     9      180.000000       18.970725         2
         7        23        11        10     9        0.000000       -1.472930         3
         7        23        11        10     9      180.000000       -0.446071         4
         7        23        11        12     9        0.000000        0.174252         1
         7        23        11        12     9      180.000000       14.552777         2
         7        23        11        12     9        0.000000       -0.131697         3
         7        23        11        12     9      180.000000       -0.177413         4
         8         7         6        24     9        0.000000        0.006897         1
         8         7         6        24     9      180.000000        3.074639         2
         8         7         6        24     9        0.000000        0.034929         3
         8         7         6        24     9      180.000000       -0.127606         4
         8         7        23        11     9        0.000000       -0.071607         1
         8         7        23        11     9      180.000000       18.677985         2
         8         7        23        11     9        0.000000       -1.552051         3
         8         7        23        11     9      180.000000       -0.493040         4
         8         7        23        43     9        0.000000       -0.148706         1
         8         7        23        43     9      180.000000       14.697322         2
         8         7        23        43     9        0.000000       -0.603584         3
         8         7        23        43     9      180.000000       -0.026231         4
         8         9        10        11     9        0.000000        0.109050         1
         8         9        10        11     9      180.000000       18.616529         2
         8         9        10        11     9        0.000000       -1.515084         3
         8         9        10        11     9      180.000000       -0.456085         4
         8         9        10        32     9        0.000000        0.052747         1
         8         9        10        32     9      180.000000       14.634508         2
         8         9        10        32     9        0.000000       -0.634940         3
         8         9        10        32     9      180.000000        0.081292         4
         9         8         7        23     9        0.000000       -0.220484         1
         9         8         7        23     9      180.000000       18.751608         2
         9         8         7        23     9        0.000000       -1.492713         3
         9         8         7        23     9      180.000000       -0.355126         4
         9        10        11        12     9        0.000000        0.175750         1
         9        10        11        12     9      180.000000       14.708349         2
         9        10        11        12     9        0.000000       -0.202608         3
         9        10        11        12     9      180.000000       -0.099357         4
         9        10        11        23     9        0.000000       -0.132125         1
         9        10        11        23     9      180.000000       19.083593         2
         9        10        11        23     9        0.000000       -1.437675         3
         9        10        11        23     9      180.000000       -0.459673         4
        10         9         8        30     9        0.000000        0.077440         1
        10         9         8        30     9      180.000000       14.585815         2
        10         9         8        30     9        0.000000       -0.742600         3
        10         9         8        30     9      180.000000        0.171579         4
        10        11        12        13     9        0.000000       -0.241508         1
        10        11        12        13     9      180.000000        1.377442         2
        10        11        12        13     9        0.000000        0.140578         3
        10        11        12        13     9      180.000000        0.090995         4
        10        11        12        16     9        0.000000       -0.231459         1
        10        11        12        16     9      180.000000        1.367796         2
        10        11        12        16     9        0.000000        0.169382         3
        10        11        12        16     9      180.000000        0.152539         4
        10        11        12        21     9        0.000000       -0.307022         1
        10        11        12        21     9      180.000000       -0.481876         2
        10        11        12        21     9        0.000000        0.144676         3
        10        11        12        21     9      180.000000        0.132200         4
        10        11        23        43     9        0.000000        0.035719         1
        10        11        23        43     9      180.000000       14.339580         2
        10        11        23        43     9        0.000000       -0.689340         3
        10        11        23        43     9      180.000000        0.075035         4
        11        10         9        31     9        0.000000        0.071512         1
        11        10         9        31     9      180.000000       15.083015         2
        11        10         9        31     9        0.000000       -0.584435         3
        11        10         9        31     9      180.000000        0.085537         4
        11        12        13        14     9        0.000000       -0.047012         1
        11        12        13        14     9      180.000000        0.459080         2
        11        12        13        14     9        0.000000        1.284585         3
        11        12        13        14     9      180.000000        0.092191         4
        11        12        13        15     9        0.000000       -0.047012         1
        11        12        13        15     9      180.000000        0.459080         2
        11        12        13        15     9        0.000000        1.284585         3
        11        12        13        15     9      180.000000        0.092191         4
        11        12        13        33     9        0.000000        0.063878         1
        11        12        13        33     9      180.000000        0.865170         2
        11        12        13        33     9        0.000000        1.585218         3
        11        12        13        33     9      180.000000        0.061512         4
        11        12        16        17     9        0.000000        0.012920         1
        11        12        16        17     9      180.000000        0.605239         2
        11        12        16        17     9        0.000000        0.247696         3
        11        12        16        17     9      180.000000        0.225341         4
        11        12        16        38     9        0.000000        1.059554         1
        11        12        16        38     9      180.000000        0.527404         2
        11        12        16        38     9        0.000000        0.152015         3
        11        12        16        38     9      180.000000       -0.043896         4
        11        12        21        19     9        0.000000        0.580673         1
        11        12        21        19     9      180.000000        0.779045         2
        11        12        21        19     9        0.000000        0.419813         3
        11        12        21        19     9      180.000000        0.785128         4
        11        12        21        22     9        0.000000       -0.842679         1
        11        12        21        22     9      180.000000        1.204222         2
        11        12        21        22     9        0.000000       -0.336938         3
        11        12        21        22     9      180.000000        0.433070         4
        12        11        10        32     9        0.000000       -0.024046         1
        12        11        10        32     9      180.000000       12.655441         2
        12        11        10        32     9        0.000000       -0.307111         3
        12        11        10        32     9      180.000000        0.222241         4
        12        11        23        43     9        0.000000       -0.029778         1
        12        11        23        43     9      180.000000       12.773271         2
        12        11        23        43     9        0.000000       -0.300560         3
        12        11        23        43     9      180.000000        0.221158         4
        12        13        14        15     9        0.000000       36.756380         1
        12        13        14        15     9      180.000000       -1.256458         2
        12        13        14        15     9        0.000000        1.578942         3
        12        13        14        15     9      180.000000       11.424950         4
        12        13        14        34     9        0.000000        0.702706         1
        12        13        14        34     9      180.000000       -1.580479         2
        12        13        14        34     9        0.000000        0.019185         3
        12        13        14        34     9      180.000000        1.344228         4
        12        13        14        35     9        0.000000        0.702706         1
        12        13        14        35     9      180.000000       -1.580479         2
        12        13        14        35     9        0.000000        0.019185         3
        12        13        14        35     9      180.000000        1.344228         4
        12        13        15        14     9        0.000000       36.756380         1
        12        13        15        14     9      180.000000       -1.256458         2
        12        13        15        14     9        0.000000        1.578942         3
        12        13        15        14     9      180.000000       11.424950         4
        12        13        15        36     9        0.000000        0.702706         1
        12        13        15        36     9      180.000000       -1.580479         2
        12        13        15        36     9        0.000000        0.019185         3
        12        13        15        36     9      180.000000        1.344228         4
        12        13        15        37     9        0.000000        0.702706         1
        12        13        15        37     9      180.000000       -1.580479         2
        12        13        15        37     9        0.000000        0.019185         3
        12        13        15        37     9      180.000000        1.344228         4
        12        16        17        18     9        0.000000        2.225654         1
        12        16        17        18     9      180.000000       17.710704         2
        12        16        17        18     9        0.000000        0.846330         3
        12        16        17        18     9      180.000000       -1.899073         4
        12        16        17        19     9        0.000000       -1.503541         1
        12        16        17        19     9      180.000000       22.318135         2
        12        16        17        19     9        0.000000       -1.492200         3
        12        16        17        19     9      180.000000       -2.587925         4
        12        21        19        17     9        0.000000       -3.199269         1
        12        21        19        17     9      180.000000       11.134571         2
        12        21        19        17     9        0.000000       -1.424548         3
        12        21        19        17     9      180.000000       -0.354714         4
        12        21        19        20     9        0.000000       -0.927348         1
        12        21        19        20     9      180.000000        5.632266         2
        12        21        19        20     9        0.000000        0.194517         3
        12        21        19        20     9      180.000000       -0.146003         4
        13        12        11        23     9        0.000000       -0.455351         1
        13        12        11        23     9      180.000000        1.476769         2
        13        12        11        23     9        0.000000        0.087463         3
        13        12        11        23     9      180.000000        0.082650         4
        13        12        16        17     9        0.000000       -3.192217         1
        13        12        16        17     9      180.000000        1.786950         2
        13        12        16        17     9        0.000000        0.247241         3
        13        12        16        17     9      180.000000        0.162775         4
        13        12        16        38     9        0.000000        1.093011         1
        13        12        16        38     9      180.000000        0.895513         2
        13        12        16        38     9        0.000000        0.083133         3
        13        12        16        38     9      180.000000        0.034288         4
        13        12        21        19     9        0.000000       -1.663483         1
        13        12        21        19     9      180.000000        1.743965         2
        13        12        21        19     9        0.000000        0.204177         3
        13        12        21        19     9      180.000000        0.678616         4
        13        12        21        22     9        0.000000       -0.690913         1
        13        12        21        22     9      180.000000        1.656975         2
        13        12        21        22     9        0.000000       -0.529450         3
        13        12        21        22     9      180.000000        0.437851         4
        13        14        15        36     9        0.000000       27.788818         1
        13        14        15        36     9      180.000000        2.343705         2
        13        14        15        36     9        0.000000       -0.080764         3
        13        14        15        36     9      180.000000        5.696217         4
        13        14        15        37     9        0.000000       27.788818         1
        13        14        15        37     9      180.000000        2.343705         2
        13        14        15        37     9        0.000000       -0.080764         3
        13        14        15        37     9      180.000000        5.696217         4
        13        15        14        34     9        0.000000       27.788822         1
        13        15        14        34     9      180.000000        2.343704         2
        13        15        14        34     9        0.000000       -0.080764         3
        13        15        14        34     9      180.000000        5.696217         4
        13        15        14        35     9        0.000000       27.788818         1
        13        15        14        35     9      180.000000        2.343705         2
        13        15        14        35     9        0.000000       -0.080764         3
        13        15        14        35     9      180.000000        5.696217         4
        14        13        12        16     9        0.000000        0.135020         1
        14        13        12        16     9      180.000000       -0.526363         2
        14        13        12        16     9        0.000000        1.071461         3
        14        13        12        16     9      180.000000        0.128479         4
        14        13        12        21     9        0.000000       -0.543666         1
        14        13        12        21     9      180.000000       -0.010015         2
        14        13        12        21     9        0.000000        0.823229         3
        14        13        12        21     9      180.000000        0.023438         4
        14        13        15        36     9        0.000000       32.216267         1
        14        13        15        36     9      180.000000        2.449346         2
        14        13        15        36     9        0.000000        0.006301         3
        14        13        15        36     9      180.000000        6.330639         4
        14        13        15        37     9        0.000000       32.216267         1
        14        13        15        37     9      180.000000        2.449346         2
        14        13        15        37     9        0.000000        0.006301         3
        14        13        15        37     9      180.000000        6.330639         4
        14        15        13        33     9        0.000000       33.214311         1
        14        15        13        33     9      180.000000        4.388815         2
        14        15        13        33     9        0.000000       -0.341486         3
        14        15        13        33     9      180.000000        6.831463         4
        15        13        12        16     9        0.000000        0.135020         1
        15        13        12        16     9      180.000000       -0.526363         2
        15        13        12        16     9        0.000000        1.071461         3
        15        13        12        16     9      180.000000        0.128479         4
        15        13        12        21     9        0.000000       -0.543666         1
        15        13        12        21     9      180.000000       -0.010015         2
        15        13        12        21     9        0.000000        0.823229         3
        15        13        12        21     9      180.000000        0.023438         4
        15        13        14        34     9        0.000000       32.216271         1
        15        13        14        34     9      180.000000        2.449346         2
        15        13        14        34     9        0.000000        0.006300         3
        15        13        14        34     9      180.000000        6.330639         4
        15        13        14        35     9        0.000000       32.216267         1
        15        13        14        35     9      180.000000        2.449346         2
        15        13        14        35     9        0.000000        0.006301         3
        15        13        14        35     9      180.000000        6.330639         4
        15        14        13        33     9        0.000000       33.214311         1
        15        14        13        33     9      180.000000        4.388815         2
        15        14        13        33     9        0.000000       -0.341486         3
        15        14        13        33     9      180.000000        6.831463         4
        16        12        11        23     9        0.000000       -0.088741         1
        16        12        11        23     9      180.000000        1.421687         2
        16        12        11        23     9        0.000000        0.103807         3
        16        12        11        23     9      180.000000        0.135944         4
        16        12        13        33     9        0.000000       -0.825186         1
        16        12        13        33     9      180.000000       -0.748654         2
        16        12        13        33     9        0.000000        1.187461         3
        16        12        13        33     9      180.000000       -0.113455         4
        16        12        21        19     9        0.000000        0.846267         1
        16        12        21        19     9      180.000000        7.674253         2
        16        12        21        19     9        0.000000       -0.129959         3
        16        12        21        19     9      180.000000       -0.374181         4
        16        12        21        22     9        0.000000        6.954343         1
        16        12        21        22     9      180.000000        5.214521         2
        16        12        21        22     9        0.000000        0.085530         3
        16        12        21        22     9      180.000000        0.381754         4
        16        17        18        39     9        0.000000       -1.912810         1
        16        17        18        39     9      180.000000        6.401110         2
        16        17        18        39     9        0.000000       -0.119591         3
        16        17        18        39     9      180.000000       -0.499019         4
        16        17        18        45     9        0.000000       -1.912810         1
        16        17        18        45     9      180.000000        6.401110         2
        16        17        18        45     9        0.000000       -0.119591         3
        16        17        18        45     9      180.000000       -0.499019         4
        16        17        19        20     9        0.000000       -2.595472         1
        16        17        19        20     9      180.000000        5.687022         2
        16        17        19        20     9        0.000000       -0.270199         3
        16        17        19        20     9      180.000000        0.071016         4
        16        17        19        21     9        0.000000       -1.530473         1
        16        17        19        21     9      180.000000       14.535265         2
        16        17        19        21     9        0.000000       -2.812515         3
        16        17        19        21     9      180.000000       -1.257192         4
        17        16        12        21     9        0.000000       -2.410526         1
        17        16        12        21     9      180.000000        7.090548         2
        17        16        12        21     9        0.000000       -0.379500         3
        17        16        12        21     9      180.000000       -1.884004         4
        17        19        20        40     9        0.000000        0.017243         1
        17        19        20        40     9      180.000000        0.009278         2
        17        19        20        40     9        0.000000        0.186287         3
        17        19        20        40     9      180.000000       -0.015663         4
        17        19        20        41     9        0.000000        0.017243         1
        17        19        20        41     9      180.000000        0.009278         2
        17        19        20        41     9        0.000000        0.186287         3
        17        19        20        41     9      180.000000       -0.015663         4
        17        19        20        42     9        0.000000        0.017243         1
        17        19        20        42     9      180.000000        0.009278         2
        17        19        20        42     9        0.000000        0.186287         3
        17        19        20        42     9      180.000000       -0.015663         4
        17        19        21        22     9        0.000000        1.863267         1
        17        19        21        22     9      180.000000       16.900331         2
        17        19        21        22     9        0.000000       -0.487083         3
        17        19        21        22     9      180.000000       -0.863534         4
        18        17        16        38     9        0.000000       -0.804131         1
        18        17        16        38     9      180.000000        8.071699         2
        18        17        16        38     9        0.000000        0.396356         3
        18        17        16        38     9      180.000000       -0.383885         4
        18        17        19        20     9        0.000000        1.681250         1
        18        17        19        20     9      180.000000        7.565634         2
        18        17        19        20     9        0.000000       -0.084198         3
        18        17        19        20     9      180.000000       -0.117755         4
        18        17        19        21     9        0.000000        1.215504         1
        18        17        19        21     9      180.000000       13.015315         2
        18        17        19        21     9        0.000000       -0.233097         3
        18        17        19        21     9      180.000000       -0.792367         4
        19        17        16        38     9        0.000000       -0.423671         1
        19        17        16        38     9      180.000000        8.960265         2
        19        17        16        38     9        0.000000        0.006718         3
        19        17        16        38     9      180.000000       -0.794589         4
        19        17        18        39     9        0.000000       -0.692758         1
        19        17        18        39     9      180.000000        6.266682         2
        19        17        18        39     9        0.000000        0.276009         3
        19        17        18        39     9      180.000000       -0.640727         4
        19        17        18        45     9        0.000000       -0.692758         1
        19        17        18        45     9      180.000000        6.266682         2
        19        17        18        45     9        0.000000        0.276009         3
        19        17        18        45     9      180.000000       -0.640727         4
        20        19        21        22     9        0.000000       -0.372579         1
        20        19        21        22     9      180.000000        9.241157         2
        20        19        21        22     9        0.000000       -0.366743         3
        20        19        21        22     9      180.000000        0.272899         4
        21        12        11        23     9        0.000000       -0.645005         1
        21        12        11        23     9      180.000000       -0.374448         2
        21        12        11        23     9        0.000000        0.117428         3
        21        12        11        23     9      180.000000        0.136619         4
        21        12        13        33     9        0.000000        0.320143         1
        21        12        13        33     9      180.000000        0.180785         2
        21        12        13        33     9        0.000000        0.829727         3
        21        12        13        33     9      180.000000        0.033272         4
        21        12        16        38     9        0.000000       -0.684303         1
        21        12        16        38     9      180.000000       -0.486763         2
        21        12        16        38     9        0.000000        0.139437         3
        21        12        16        38     9      180.000000        0.153061         4
        21        19        20        40     9        0.000000       -0.076232         1
        21        19        20        40     9      180.000000       -0.069377         2
        21        19        20        40     9        0.000000       -0.309860         3
        21        19        20        40     9      180.000000        0.046067         4
        21        19        20        41     9        0.000000       -0.076232         1
        21        19        20        41     9      180.000000       -0.069377         2
        21        19        20        41     9        0.000000       -0.309860         3
        21        19        20        41     9      180.000000        0.046067         4
        21        19        20        42     9        0.000000       -0.076232         1
        21        19        20        42     9      180.000000       -0.069377         2
        21        19        20        42     9        0.000000       -0.309860         3
        21        19        20        42     9      180.000000        0.046067         4
        23         7         6        24     9        0.000000       -0.006731         1
        23         7         6        24     9      180.000000        3.198152         2
        23         7         6        24     9        0.000000        0.021693         3
        23         7         6        24     9      180.000000       -0.125870         4
        23         7         8        30     9        0.000000       -0.141319         1
        23         7         8        30     9      180.000000       14.726012         2
        23         7         8        30     9        0.000000       -0.683568         3
        23         7         8        30     9      180.000000        0.036842         4
        23        11        10        32     9        0.000000        0.034407         1
        23        11        10        32     9      180.000000       14.253556         2
        23        11        10        32     9        0.000000       -0.628435         3
        23        11        10        32     9      180.000000        0.068790         4
        24         2         1        25     9        0.000000       -0.015096         1
        24         2         1        25     9      180.000000        0.025229         2
        24         2         1        25     9        0.000000       -0.001608         3
        24         2         1        25     9      180.000000        0.004619         4
        24         2         1        26     9        0.000000       -0.015096         1
        24         2         1        26     9      180.000000        0.025229         2
        24         2         1        26     9        0.000000       -0.001608         3
        24         2         1        26     9      180.000000        0.004619         4
        24         2         1        27     9        0.000000       -0.015096         1
        24         2         1        27     9      180.000000        0.025229         2
        24         2         1        27     9        0.000000       -0.001608         3
        24         2         1        27     9      180.000000        0.004619         4
        24         2         3        28     9        0.000000       -0.058649         1
        24         2         3        28     9      180.000000       13.437988         2
        24         2         3        28     9        0.000000       -0.379504         3
        24         2         3        28     9      180.000000        0.060214         4
        24         6         5        29     9        0.000000       -0.161594         1
        24         6         5        29     9      180.000000       13.196818         2
        24         6         5        29     9        0.000000       -0.407902         3
        24         6         5        29     9      180.000000        0.124754         4
        30         8         9        31     9        0.000000       -0.170501         1
        30         8         9        31     9      180.000000       11.978213         2
        30         8         9        31     9        0.000000       -0.721175         3
        30         8         9        31     9      180.000000        0.313437         4
        31         9        10        32     9        0.000000       -0.140623         1
        31         9        10        32     9      180.000000       11.913582         2
        31         9        10        32     9        0.000000       -0.716171         3
        31         9        10        32     9      180.000000        0.300768         4
        33        13        14        34     9        0.000000        1.157644         1
        33        13        14        34     9      180.000000       -0.567150         2
        33        13        14        34     9        0.000000        0.081132         3
        33        13        14        34     9      180.000000        1.453199         4
        33        13        14        35     9        0.000000        1.157643         1
        33        13        14        35     9      180.000000       -0.567150         2
        33        13        14        35     9        0.000000        0.081132         3
        33        13        14        35     9      180.000000        1.453199         4
        33        13        15        36     9        0.000000        1.157643         1
        33        13        15        36     9      180.000000       -0.567150         2
        33        13        15        36     9        0.000000        0.081132         3
        33        13        15        36     9      180.000000        1.453199         4
        33        13        15        37     9        0.000000        1.157643         1
        33        13        15        37     9      180.000000       -0.567150         2
        33        13        15        37     9        0.000000        0.081132         3
        33        13        15        37     9      180.000000        1.453199         4
        34        14        15        36     9        0.000000        1.448266         1
        34        14        15        36     9      180.000000        0.067814         2
        34        14        15        36     9        0.000000        0.081954         3
        34        14        15        36     9      180.000000        1.066064         4
        34        14        15        37     9        0.000000        1.448266         1
        34        14        15        37     9      180.000000        0.067814         2
        34        14        15        37     9        0.000000        0.081954         3
        34        14        15        37     9      180.000000        1.066064         4
        35        14        15        36     9        0.000000        1.448267         1
        35        14        15        36     9      180.000000        0.067814         2
        35        14        15        36     9        0.000000        0.081954         3
        35        14        15        36     9      180.000000        1.066064         4
        35        14        15        37     9        0.000000        1.448267         1
        35        14        15        37     9      180.000000        0.067814         2
        35        14        15        37     9        0.000000        0.081954         3
        35        14        15        37     9      180.000000        1.066064         4

[ dihedrals ] ; impropers
;       ai        aj        ak        al funct           phase               k        pn
         3         2         4        28     4      180.000000        4.920107         2
         3         4        28         2     4      180.000000        4.920107         2
         3        28         2         4     4      180.000000        4.920107         2
         5         4         6        29     4      180.000000        1.692816         2
         5         6        29         4     4      180.000000        1.692816         2
         5        29         4         6     4      180.000000        1.692816         2
        17        16        18        19     4      180.000000       10.969362         2
        17        18        19        16     4      180.000000       10.969362         2
        17        19        16        18     4      180.000000       10.969362         2
        21        12        19        22     4      180.000000       27.893333         2
        21        19        22        12     4      180.000000       27.893333         2
        21        22        12        19     4      180.000000       27.893333         2

[ pairs ]
;       ai        aj funct
         1         4     1
         1         6     1
         1        28     1
         1        44     1
         2         5     1
         2         7     1
         3         6     1
         3        25     1
         3        26     1
         3        27     1
         3        29     1
         3        44     1
         4         7     1
         4        24     1
         5         8     1
         5        23     1
         5        28     1
         5        44     1
         6         9     1
         6        11     1
         6        30     1
         6        43     1
         7        10     1
         7        12     1
         7        29     1
         7        31     1
         7        44     1
         8        11     1
         8        24     1
         8        32     1
         8        43     1
         9        12     1
         9        23     1
        10        13     1
        10        16     1
        10        21     1
        10        30     1
        10        43     1
        11        14     1
        11        15     1
        11        17     1
        11        19     1
        11        22     1
        11        31     1
        11        33     1
        11        38     1
        12        18     1
        12        20     1
        12        32     1
        12        34     1
        12        35     1
        12        36     1
        12        37     1
        12        43     1
        13        17     1
        13        19     1
        13        22     1
        13        23     1
        13        38     1
        14        16     1
        14        21     1
        15        16     1
        15        21     1
        16        20     1
        16        22     1
        16        23     1
        16        33     1
        16        39     1
        16        45     1
        17        22     1
        17        40     1
        17        41     1
        17        42     1
        18        20     1
        18        21     1
        18        38     1
        19        38     1
        19        39     1
        19        45     1
        20        22     1
        21        23     1
        21        33     1
        21        38     1
        21        40     1
        21        41     1
        21        42     1
        23        24     1
        23        30     1
        23        32     1
        24        25     1
        24        26     1
        24        27     1
        24        28     1
        24        29     1
        30        31     1
        31        32     1
        33        34     1
        33        35     1
        33        36     1
        33        37     1
        34        36     1
        34        37     1
        35        36     1
        35        37     1
