; ITP file created by ByteFF-ML, 2026-02-21 08:13:23.349177

[ atomtypes ]
;name           bonded.type        at.num        mass        charge   ptype           sigma         epsilon
 c0bf                                   6      0.0000       0.00000       A     3.39778e-01     4.49916e-01
 o1bf                                   8      0.0000       0.00000       A     3.15888e-01     3.04118e-01
 c2bf                                   6      0.0000       0.00000       A     3.31402e-01     4.13623e-01
 c3bf                                   6      0.0000       0.00000       A     3.31533e-01     4.12632e-01
 c4bf                                   6      0.0000       0.00000       A     3.31520e-01     4.12775e-01
 c5bf                                   6      0.0000       0.00000       A     3.31452e-01     4.12442e-01
 c6bf                                   6      0.0000       0.00000       A     3.31410e-01     4.12078e-01
 c7bf                                   6      0.0000       0.00000       A     3.31500e-01     4.12376e-01
 c8bf                                   6      0.0000       0.00000       A     3.31491e-01     4.13364e-01
 c9bf                                   6      0.0000       0.00000       A     3.31511e-01     4.14036e-01
 c10bf                                  6      0.0000       0.00000       A     3.31605e-01     4.15323e-01
 c11bf                                  6      0.0000       0.00000       A     3.39379e-01     4.44341e-01
 c12bf                                  6      0.0000       0.00000       A     3.31546e-01     4.15024e-01
 c13bf                                  6      0.0000       0.00000       A     3.31529e-01     4.14153e-01
 c14bf                                  6      0.0000       0.00000       A     3.31506e-01     4.13240e-01
 c15bf                                  6      0.0000       0.00000       A     3.31502e-01     4.12817e-01
 c16bf                                  6      0.0000       0.00000       A     3.31506e-01     4.13240e-01
 c17bf                                  6      0.0000       0.00000       A     3.31529e-01     4.14153e-01
 n18bf                                  7      0.0000       0.00000       A     3.26871e-01     6.40659e-01
 c19bf                                  6      0.0000       0.00000       A     3.31223e-01     4.10380e-01
 n20bf                                  7      0.0000       0.00000       A     3.36731e-01     4.77019e-01
 n21bf                                  7      0.0000       0.00000       A     3.18321e-01     7.03038e-01
 c22bf                                  6      0.0000       0.00000       A     3.39898e-01     4.52593e-01
 c23bf                                  6      0.0000       0.00000       A     3.31448e-01     4.16659e-01
 o24bf                                  8      0.0000       0.00000       A     3.04556e-01     6.16025e-01
 c25bf                                  6      0.0000       0.00000       A     3.31605e-01     4.15034e-01
 c26bf                                  6      0.0000       0.00000       A     3.31520e-01     4.12775e-01
 c27bf                                  6      0.0000       0.00000       A     3.31533e-01     4.12632e-01
 h28bf                                  1      0.0000       0.00000       A     2.42080e-01     8.75859e-02
 h29bf                                  1      0.0000       0.00000       A     2.42080e-01     8.75859e-02
 h30bf                                  1      0.0000       0.00000       A     2.42080e-01     8.75859e-02
 h31bf                                  1      0.0000       0.00000       A     2.62487e-01     6.70190e-02
 h32bf                                  1      0.0000       0.00000       A     2.62482e-01     6.75153e-02
 h33bf                                  1      0.0000       0.00000       A     2.62472e-01     6.74738e-02
 h34bf                                  1      0.0000       0.00000       A     2.62513e-01     6.74259e-02
 h35bf                                  1      0.0000       0.00000       A     2.62565e-01     6.77340e-02
 h36bf                                  1      0.0000       0.00000       A     2.62565e-01     6.77340e-02
 h37bf                                  1      0.0000       0.00000       A     2.62462e-01     6.72839e-02
 h38bf                                  1      0.0000       0.00000       A     2.62457e-01     6.73477e-02
 h39bf                                  1      0.0000       0.00000       A     2.62462e-01     6.72839e-02
 h40bf                                  1      0.0000       0.00000       A     2.62565e-01     6.77340e-02
 h41bf                                  1      0.0000       0.00000       A     1.10491e-01     4.02241e-02
 h42bf                                  1      0.0000       0.00000       A     1.10384e-01     3.90095e-02
 h43bf                                  1      0.0000       0.00000       A     2.42205e-01     8.61909e-02
 h44bf                                  1      0.0000       0.00000       A     2.42205e-01     8.61909e-02
 h45bf                                  1      0.0000       0.00000       A     2.42205e-01     8.61909e-02
 h46bf                                  1      0.0000       0.00000       A     2.62568e-01     6.76574e-02
 h47bf                                  1      0.0000       0.00000       A     2.62482e-01     6.75153e-02
 h48bf                                  1      0.0000       0.00000       A     2.62487e-01     6.70190e-02
 h49bf                                  1      0.0000       0.00000       A     1.10384e-01     3.90095e-02

[ moleculetype ]
;name             nrexcl
 CAT-4c                3

[ atoms ]
;       nr            type      resi   res      atom      cgnr      charge          mass ; qtot
         1            c0bf         1   UNL        c0         1     0.14272       12.0110 ; qtot    0.143
         2            o1bf         1   UNL        o1         2    -0.34485       15.9990 ; qtot   -0.202
         3            c2bf         1   UNL        c2         3     0.14053       12.0110 ; qtot   -0.062
         4            c3bf         1   UNL        c3         4    -0.17397       12.0110 ; qtot   -0.236
         5            c4bf         1   UNL        c4         5    -0.06569       12.0110 ; qtot   -0.301
         6            c5bf         1   UNL        c5         6    -0.07689       12.0110 ; qtot   -0.378
         7            c6bf         1   UNL        c6         7    -0.01798       12.0110 ; qtot   -0.396
         8            c7bf         1   UNL        c7         8    -0.09581       12.0110 ; qtot   -0.492
         9            c8bf         1   UNL        c8         9    -0.09730       12.0110 ; qtot   -0.589
        10            c9bf         1   UNL        c9        10    -0.07243       12.0110 ; qtot   -0.662
        11           c10bf         1   UNL       c10        11    -0.12869       12.0110 ; qtot   -0.790
        12           c11bf         1   UNL       c11        12     0.14233       12.0110 ; qtot   -0.648
        13           c12bf         1   UNL       c12        13    -0.13622       12.0110 ; qtot   -0.784
        14           c13bf         1   UNL       c13        14    -0.07841       12.0110 ; qtot   -0.863
        15           c14bf         1   UNL       c14        15    -0.10257       12.0110 ; qtot   -0.965
        16           c15bf         1   UNL       c15        16    -0.09285       12.0110 ; qtot   -1.058
        17           c16bf         1   UNL       c16        17    -0.10257       12.0110 ; qtot   -1.161
        18           c17bf         1   UNL       c17        18    -0.07841       12.0110 ; qtot   -1.239
        19           n18bf         1   UNL       n18        19    -0.61420       14.0070 ; qtot   -1.853
        20           c19bf         1   UNL       c19        20     0.93511       12.0110 ; qtot   -0.918
        21           n20bf         1   UNL       n20        21    -0.58908       14.0070 ; qtot   -1.507
        22           n21bf         1   UNL       n21        22    -0.59233       14.0070 ; qtot   -2.100
        23           c22bf         1   UNL       c22        23     0.07241       12.0110 ; qtot   -2.027
        24           c23bf         1   UNL       c23        24     0.55441       12.0110 ; qtot   -1.473
        25           o24bf         1   UNL       o24        25    -0.38753       15.9990 ; qtot   -1.860
        26           c25bf         1   UNL       c25        26    -0.06313       12.0110 ; qtot   -1.923
        27           c26bf         1   UNL       c26        27    -0.06569       12.0110 ; qtot   -1.989
        28           c27bf         1   UNL       c27        28    -0.17397       12.0110 ; qtot   -2.163
        29           h28bf         1   UNL       h28        29     0.04277        1.0080 ; qtot   -2.120
        30           h29bf         1   UNL       h29        30     0.04277        1.0080 ; qtot   -2.078
        31           h30bf         1   UNL       h30        31     0.04277        1.0080 ; qtot   -2.035
        32           h31bf         1   UNL       h31        32     0.12342        1.0080 ; qtot   -1.911
        33           h32bf         1   UNL       h32        33     0.11707        1.0080 ; qtot   -1.794
        34           h33bf         1   UNL       h33        34     0.11650        1.0080 ; qtot   -1.678
        35           h34bf         1   UNL       h34        35     0.12026        1.0080 ; qtot   -1.558
        36           h35bf         1   UNL       h35        36     0.12975        1.0080 ; qtot   -1.428
        37           h36bf         1   UNL       h36        37     0.12674        1.0080 ; qtot   -1.301
        38           h37bf         1   UNL       h37        38     0.11912        1.0080 ; qtot   -1.182
        39           h38bf         1   UNL       h38        39     0.11390        1.0080 ; qtot   -1.068
        40           h39bf         1   UNL       h39        40     0.11912        1.0080 ; qtot   -0.949
        41           h40bf         1   UNL       h40        41     0.12674        1.0080 ; qtot   -0.822
        42           h41bf         1   UNL       h41        42     0.41349        1.0080 ; qtot   -0.409
        43           h42bf         1   UNL       h42        43     0.38417        1.0080 ; qtot   -0.024
        44           h43bf         1   UNL       h43        44     0.08958        1.0080 ; qtot    0.065
        45           h44bf         1   UNL       h44        45     0.08958        1.0080 ; qtot    0.155
        46           h45bf         1   UNL       h45        46     0.08958        1.0080 ; qtot    0.244
        47           h46bf         1   UNL       h46        47     0.13108        1.0080 ; qtot    0.375
        48           h47bf         1   UNL       h47        48     0.11707        1.0080 ; qtot    0.492
        49           h48bf         1   UNL       h48        49     0.12342        1.0080 ; qtot    0.616
        50           h49bf         1   UNL       h49        50     0.38416        1.0080 ; qtot    1.000

[ bonds ]
;       ai        aj funct               r               k
         1         2     1        0.142441   208856.845093
         1        29     1        0.109438   297412.683691
         1        30     1        0.109438   297412.683691
         1        31     1        0.109438   297412.683691
         2         3     1        0.136580   273203.069873
         3         4     1        0.140379   286602.569922
         3        28     1        0.140379   286602.544385
         4         5     1        0.139496   327816.987354
         4        32     1        0.108448   322398.370264
         5         6     1        0.140518   284670.738672
         5        33     1        0.108614   317722.602148
         6         7     1        0.148220   214386.101709
         6        27     1        0.140518   284670.738672
         7         8     1        0.140582   284517.541553
         7        26     1        0.140433   285849.812549
         8         9     1        0.139603   315551.360498
         8        34     1        0.108587   318592.753613
         9        10     1        0.139662   313971.762598
         9        35     1        0.108615   320003.653369
        10        11     1        0.140096   292907.503467
        10        36     1        0.108548   320727.145215
        11        12     1        0.152371   165267.834009
        11        26     1        0.139914   296266.067480
        12        13     1        0.152361   165060.408838
        12        19     1        0.148849   140457.102173
        12        24     1        0.154797   124308.634448
        13        14     1        0.140161   291585.804834
        13        18     1        0.140161   291585.804834
        14        15     1        0.139713   314164.440088
        14        37     1        0.108563   319867.744873
        15        16     1        0.139901   306343.700342
        15        38     1        0.108609   320432.753418
        16        17     1        0.139901   306343.700342
        16        39     1        0.108623   320033.480713
        17        18     1        0.139713   314164.414551
        17        40     1        0.108609   320432.727881
        18        41     1        0.108563   319867.744873
        19        20     1        0.133367   385280.003516
        19        42     1        0.101328   425133.063184
        20        21     1        0.133057   418437.999219
        20        22     1        0.135571   306128.141602
        21        43     1        0.101331   425032.344824
        21        50     1        0.101331   425032.344824
        22        23     1        0.146770   194545.402100
        22        24     1        0.142427   149007.730811
        23        44     1        0.109019   312430.214990
        23        45     1        0.109019   312430.214990
        23        46     1        0.109019   312430.214990
        24        25     1        0.120340   720923.067871
        26        47     1        0.108523   319792.691309
        27        28     1        0.139496   327816.961816
        27        48     1        0.108614   317722.576611
        28        49     1        0.108448   322398.370264

[ angles ]
;       ai        aj        ak funct           theta             cth
         1         2         3     1      118.120193      559.288296
         2         1        29     1      109.552940      448.831711
         2         1        30     1      109.552940      448.831711
         2         1        31     1      109.552940      448.831711
         2         3         4     1      120.647629      570.375871
         2         3        28     1      120.647629      570.375935
         3         4         5     1      119.854858      749.526290
         3         4        32     1      120.103966      441.213226
         3        28        27     1      119.854858      749.526290
         3        28        49     1      120.103966      441.213226
         4         3        28     1      119.318115      536.271317
         4         5         6     1      121.647324      670.572635
         4         5        33     1      118.811584      429.273446
         5         4        32     1      119.899986      435.023318
         5         6         7     1      121.232895      525.056950
         5         6        27     1      117.327560      545.510834
         6         5        33     1      119.623123      422.186674
         6         7         8     1      121.028610      509.540922
         6         7        26     1      120.999550      421.952818
         6        27        28     1      121.647324      670.572635
         6        27        48     1      119.623123      422.186611
         7         6        27     1      121.232895      525.056950
         7         8         9     1      120.544373      710.845039
         7         8        34     1      119.680481      426.582952
         7        26        11     1      121.214455      669.840294
         7        26        47     1      118.981712      416.054800
         8         7        26     1      118.193092      672.427459
         8         9        10     1      120.366478      724.982830
         8         9        35     1      119.786987      435.444935
         9         8        34     1      119.753372      429.073682
         9        10        11     1      119.673203      676.925437
         9        10        36     1      119.808311      423.195678
        10         9        35     1      119.830856      430.852405
        10        11        12     1      120.064842      485.172965
        10        11        26     1      119.666611      693.265357
        11        10        36     1      120.424927      402.069114
        11        12        13     1      114.689346      487.977323
        11        12        19     1      110.780807      597.256807
        11        12        24     1      111.206497      602.067296
        11        26        47     1      119.810341      401.909220
        12        11        26     1      119.851303      444.160751
        12        13        14     1      120.068604      477.433625
        12        13        18     1      120.068604      477.433625
        12        19        20     1      111.971664      628.767110
        12        19        42     1      120.754250      368.882332
        12        24        22     1      106.249046      167.360000
        12        24        25     1      127.886978      362.102102
        13        12        19     1      110.788513      594.970597
        13        12        24     1      111.267578      601.092927
        13        14        15     1      120.195145      680.403464
        13        14        37     1      120.290939      398.410317
        13        18        17     1      120.195145      680.403464
        13        18        41     1      120.290939      398.410317
        14        13        18     1      119.478966      686.490936
        14        15        16     1      120.116295      721.653685
        14        15        38     1      119.730301      425.611775
        15        14        37     1      119.529823      427.934599
        15        16        17     1      119.660950      700.021199
        15        16        39     1      120.189026      428.146429
        16        15        38     1      120.129761      427.908679
        16        17        18     1      120.116295      721.653685
        16        17        40     1      120.129761      427.908679
        17        16        39     1      120.189026      428.146429
        17        18        41     1      119.529823      427.934599
        18        17        40     1      119.730301      425.611775
        19        12        24     1      100.257896      341.583896
        19        20        21     1      125.357384      617.615756
        19        20        22     1      111.298294      587.422466
        20        19        42     1      123.585732      427.054526
        20        21        43     1      121.296143      450.934469
        20        21        50     1      121.296143      450.934469
        20        22        23     1      126.578964      468.028818
        20        22        24     1      109.844315      842.413950
        21        20        22     1      123.852615      626.812755
        22        23        44     1      109.237282      484.028775
        22        23        45     1      109.237282      484.028775
        22        23        46     1      109.237282      484.028775
        22        24        25     1      124.686508      645.429116
        23        22        24     1      123.180504      536.340969
        27        28        49     1      119.899986      435.023286
        28        27        48     1      118.811569      429.273446
        29         1        30     1      109.477646      342.882171
        29         1        31     1      109.477646      342.882171
        30         1        31     1      109.477646      342.882171
        43        21        50     1      117.458168      314.236876
        44        23        45     1      109.825012      349.354041
        44        23        46     1      109.825012      349.354041
        45        23        46     1      109.825012      349.354041

[ dihedrals ] ; propers for gromacs 4.5 or higher, use funct 9
;       ai        aj        ak        al funct           phase               k        pn
         1         2         3         4     9        0.000000        0.241544         1
         1         2         3         4     9      180.000000        5.747497         2
         1         2         3         4     9        0.000000       -0.010020         3
         1         2         3         4     9      180.000000        0.667460         4
         1         2         3        28     9        0.000000        0.241545         1
         1         2         3        28     9      180.000000        5.747495         2
         1         2         3        28     9        0.000000       -0.010020         3
         1         2         3        28     9      180.000000        0.667460         4
         2         3         4         5     9        0.000000        0.598126         1
         2         3         4         5     9      180.000000       17.032201         2
         2         3         4         5     9        0.000000        0.430115         3
         2         3         4         5     9      180.000000       -0.350656         4
         2         3         4        32     9        0.000000        0.088274         1
         2         3         4        32     9      180.000000       12.677361         2
         2         3         4        32     9        0.000000       -0.117364         3
         2         3         4        32     9      180.000000        0.298513         4
         2         3        28        27     9        0.000000        0.598127         1
         2         3        28        27     9      180.000000       17.032203         2
         2         3        28        27     9        0.000000        0.430115         3
         2         3        28        27     9      180.000000       -0.350656         4
         2         3        28        49     9        0.000000        0.088275         1
         2         3        28        49     9      180.000000       12.677364         2
         2         3        28        49     9        0.000000       -0.117363         3
         2         3        28        49     9      180.000000        0.298513         4
         3         2         1        29     9        0.000000       -0.090046         1
         3         2         1        29     9      180.000000        0.039694         2
         3         2         1        29     9        0.000000        0.655262         3
         3         2         1        29     9      180.000000       -0.031937         4
         3         2         1        30     9        0.000000       -0.090046         1
         3         2         1        30     9      180.000000        0.039694         2
         3         2         1        30     9        0.000000        0.655262         3
         3         2         1        30     9      180.000000       -0.031937         4
         3         2         1        31     9        0.000000       -0.090046         1
         3         2         1        31     9      180.000000        0.039694         2
         3         2         1        31     9        0.000000        0.655262         3
         3         2         1        31     9      180.000000       -0.031937         4
         3         4         5         6     9        0.000000       -0.098792         1
         3         4         5         6     9      180.000000       18.793313         2
         3         4         5         6     9        0.000000       -1.524720         3
         3         4         5         6     9      180.000000       -0.469385         4
         3         4         5        33     9        0.000000        0.059531         1
         3         4         5        33     9      180.000000       14.865648         2
         3         4         5        33     9        0.000000       -0.523300         3
         3         4         5        33     9      180.000000        0.093275         4
         3        28        27         6     9        0.000000       -0.098792         1
         3        28        27         6     9      180.000000       18.793315         2
         3        28        27         6     9        0.000000       -1.524721         3
         3        28        27         6     9      180.000000       -0.469385         4
         3        28        27        48     9        0.000000        0.059532         1
         3        28        27        48     9      180.000000       14.865649         2
         3        28        27        48     9        0.000000       -0.523300         3
         3        28        27        48     9      180.000000        0.093275         4
         4         3        28        27     9        0.000000       -0.046311         1
         4         3        28        27     9      180.000000       15.720251         2
         4         3        28        27     9        0.000000       -0.941826         3
         4         3        28        27     9      180.000000       -0.245514         4
         4         3        28        49     9        0.000000        0.157468         1
         4         3        28        49     9      180.000000       12.492431         2
         4         3        28        49     9        0.000000       -0.424173         3
         4         3        28        49     9      180.000000        0.183540         4
         4         5         6         7     9        0.000000        0.176242         1
         4         5         6         7     9      180.000000       16.040016         2
         4         5         6         7     9        0.000000       -0.227171         3
         4         5         6         7     9      180.000000       -0.243939         4
         4         5         6        27     9        0.000000       -0.151593         1
         4         5         6        27     9      180.000000       18.321092         2
         4         5         6        27     9        0.000000       -1.471411         3
         4         5         6        27     9      180.000000       -0.322435         4
         5         4         3        28     9        0.000000       -0.046311         1
         5         4         3        28     9      180.000000       15.720253         2
         5         4         3        28     9        0.000000       -0.941826         3
         5         4         3        28     9      180.000000       -0.245514         4
         5         6         7         8     9        0.000000       -0.001931         1
         5         6         7         8     9      180.000000        3.461011         2
         5         6         7         8     9        0.000000        0.031582         3
         5         6         7         8     9      180.000000       -0.004087         4
         5         6         7        26     9        0.000000        0.015539         1
         5         6         7        26     9      180.000000        3.575016         2
         5         6         7        26     9        0.000000        0.001405         3
         5         6         7        26     9      180.000000       -0.009720         4
         5         6        27        28     9        0.000000       -0.151593         1
         5         6        27        28     9      180.000000       18.321092         2
         5         6        27        28     9        0.000000       -1.471411         3
         5         6        27        28     9      180.000000       -0.322434         4
         5         6        27        48     9        0.000000       -0.069554         1
         5         6        27        48     9      180.000000       14.157361         2
         5         6        27        48     9        0.000000       -0.692354         3
         5         6        27        48     9      180.000000        0.063140         4
         6         5         4        32     9        0.000000       -0.045564         1
         6         5         4        32     9      180.000000       14.125185         2
         6         5         4        32     9        0.000000       -0.553757         3
         6         5         4        32     9      180.000000        0.171999         4
         6         7         8         9     9        0.000000        0.270086         1
         6         7         8         9     9      180.000000       16.259816         2
         6         7         8         9     9        0.000000       -0.126304         3
         6         7         8         9     9      180.000000       -0.268175         4
         6         7         8        34     9        0.000000       -0.064822         1
         6         7         8        34     9      180.000000       13.405408         2
         6         7         8        34     9        0.000000       -0.221708         3
         6         7         8        34     9      180.000000        0.179829         4
         6         7        26        11     9        0.000000        0.301548         1
         6         7        26        11     9      180.000000       17.075751         2
         6         7        26        11     9        0.000000       -0.103874         3
         6         7        26        11     9      180.000000       -0.469103         4
         6         7        26        47     9        0.000000       -0.060751         1
         6         7        26        47     9      180.000000       13.447440         2
         6         7        26        47     9        0.000000       -0.161390         3
         6         7        26        47     9      180.000000        0.147148         4
         6        27        28        49     9        0.000000       -0.045564         1
         6        27        28        49     9      180.000000       14.125185         2
         6        27        28        49     9        0.000000       -0.553757         3
         6        27        28        49     9      180.000000        0.171999         4
         7         6         5        33     9        0.000000       -0.084968         1
         7         6         5        33     9      180.000000       13.148075         2
         7         6         5        33     9        0.000000       -0.207783         3
         7         6         5        33     9      180.000000        0.195490         4
         7         6        27        28     9        0.000000        0.176242         1
         7         6        27        28     9      180.000000       16.040015         2
         7         6        27        28     9        0.000000       -0.227171         3
         7         6        27        28     9      180.000000       -0.243939         4
         7         6        27        48     9        0.000000       -0.084968         1
         7         6        27        48     9      180.000000       13.148077         2
         7         6        27        48     9        0.000000       -0.207784         3
         7         6        27        48     9      180.000000        0.195490         4
         7         8         9        10     9        0.000000       -0.035862         1
         7         8         9        10     9      180.000000       18.698164         2
         7         8         9        10     9        0.000000       -1.522848         3
         7         8         9        10     9      180.000000       -0.333177         4
         7         8         9        35     9        0.000000       -0.062699         1
         7         8         9        35     9      180.000000       14.687684         2
         7         8         9        35     9        0.000000       -0.598575         3
         7         8         9        35     9      180.000000        0.112225         4
         7        26        11        10     9        0.000000       -0.085052         1
         7        26        11        10     9      180.000000       19.023449         2
         7        26        11        10     9        0.000000       -1.503629         3
         7        26        11        10     9      180.000000       -0.477732         4
         7        26        11        12     9        0.000000        0.179344         1
         7        26        11        12     9      180.000000       14.767488         2
         7        26        11        12     9        0.000000       -0.115235         3
         7        26        11        12     9      180.000000       -0.241186         4
         8         7         6        27     9        0.000000       -0.001930         1
         8         7         6        27     9      180.000000        3.461011         2
         8         7         6        27     9        0.000000        0.031582         3
         8         7         6        27     9      180.000000       -0.004087         4
         8         7        26        11     9        0.000000       -0.046189         1
         8         7        26        11     9      180.000000       18.696572         2
         8         7        26        11     9        0.000000       -1.483729         3
         8         7        26        11     9      180.000000       -0.484875         4
         8         7        26        47     9        0.000000       -0.127197         1
         8         7        26        47     9      180.000000       14.505691         2
         8         7        26        47     9        0.000000       -0.612318         3
         8         7        26        47     9      180.000000       -0.005121         4
         8         9        10        11     9        0.000000        0.133301         1
         8         9        10        11     9      180.000000       18.646704         2
         8         9        10        11     9        0.000000       -1.467793         3
         8         9        10        11     9      180.000000       -0.479693         4
         8         9        10        36     9        0.000000        0.071117         1
         8         9        10        36     9      180.000000       14.622252         2
         8         9        10        36     9        0.000000       -0.650862         3
         8         9        10        36     9      180.000000        0.076402         4
         9         8         7        26     9        0.000000       -0.191966         1
         9         8         7        26     9      180.000000       18.653119         2
         9         8         7        26     9        0.000000       -1.470265         3
         9         8         7        26     9      180.000000       -0.337988         4
         9        10        11        12     9        0.000000        0.183560         1
         9        10        11        12     9      180.000000       14.986926         2
         9        10        11        12     9        0.000000       -0.202030         3
         9        10        11        12     9      180.000000       -0.199513         4
         9        10        11        26     9        0.000000       -0.170320         1
         9        10        11        26     9      180.000000       19.279819         2
         9        10        11        26     9        0.000000       -1.464730         3
         9        10        11        26     9      180.000000       -0.499000         4
        10         9         8        34     9        0.000000        0.067933         1
        10         9         8        34     9      180.000000       14.604295         2
        10         9         8        34     9        0.000000       -0.730545         3
        10         9         8        34     9      180.000000        0.161582         4
        10        11        12        13     9        0.000000        0.058894         1
        10        11        12        13     9      180.000000        0.377344         2
        10        11        12        13     9        0.000000        0.198239         3
        10        11        12        13     9      180.000000        0.078961         4
        10        11        12        19     9        0.000000       -0.376656         1
        10        11        12        19     9      180.000000        1.344968         2
        10        11        12        19     9        0.000000        0.145598         3
        10        11        12        19     9      180.000000        0.196839         4
        10        11        12        24     9        0.000000       -0.327945         1
        10        11        12        24     9      180.000000       -0.606488         2
        10        11        12        24     9        0.000000        0.177664         3
        10        11        12        24     9      180.000000        0.152836         4
        10        11        26        47     9        0.000000        0.034872         1
        10        11        26        47     9      180.000000       14.598231         2
        10        11        26        47     9        0.000000       -0.717517         3
        10        11        26        47     9      180.000000        0.018569         4
        11        10         9        35     9        0.000000        0.070386         1
        11        10         9        35     9      180.000000       15.112306         2
        11        10         9        35     9        0.000000       -0.539902         3
        11        10         9        35     9      180.000000        0.068146         4
        11        12        13        14     9        0.000000        0.000123         1
        11        12        13        14     9      180.000000        0.357555         2
        11        12        13        14     9        0.000000        0.204899         3
        11        12        13        14     9      180.000000        0.092106         4
        11        12        13        18     9        0.000000        0.000123         1
        11        12        13        18     9      180.000000        0.357555         2
        11        12        13        18     9        0.000000        0.204899         3
        11        12        13        18     9      180.000000        0.092106         4
        11        12        19        20     9        0.000000        0.399115         1
        11        12        19        20     9      180.000000        0.607968         2
        11        12        19        20     9        0.000000        0.264496         3
        11        12        19        20     9      180.000000        0.238957         4
        11        12        19        42     9        0.000000        0.897845         1
        11        12        19        42     9      180.000000        0.607273         2
        11        12        19        42     9        0.000000        0.137571         3
        11        12        19        42     9      180.000000       -0.018753         4
        11        12        24        22     9        0.000000        0.551085         1
        11        12        24        22     9      180.000000        0.477491         2
        11        12        24        22     9        0.000000        0.339127         3
        11        12        24        22     9      180.000000        0.837442         4
        11        12        24        25     9        0.000000       -0.949889         1
        11        12        24        25     9      180.000000        1.119253         2
        11        12        24        25     9        0.000000       -0.353354         3
        11        12        24        25     9      180.000000        0.390425         4
        12        11        10        36     9        0.000000       -0.012755         1
        12        11        10        36     9      180.000000       12.563719         2
        12        11        10        36     9        0.000000       -0.313825         3
        12        11        10        36     9      180.000000        0.185545         4
        12        11        26        47     9        0.000000       -0.001018         1
        12        11        26        47     9      180.000000       12.769702         2
        12        11        26        47     9        0.000000       -0.292613         3
        12        11        26        47     9      180.000000        0.174406         4
        12        13        14        15     9        0.000000        0.162834         1
        12        13        14        15     9      180.000000       14.950996         2
        12        13        14        15     9        0.000000       -0.196275         3
        12        13        14        15     9      180.000000       -0.190857         4
        12        13        14        37     9        0.000000       -0.059052         1
        12        13        14        37     9      180.000000       12.509447         2
        12        13        14        37     9        0.000000       -0.335274         3
        12        13        14        37     9      180.000000        0.203867         4
        12        13        18        17     9        0.000000        0.162834         1
        12        13        18        17     9      180.000000       14.950996         2
        12        13        18        17     9        0.000000       -0.196275         3
        12        13        18        17     9      180.000000       -0.190857         4
        12        13        18        41     9        0.000000       -0.059052         1
        12        13        18        41     9      180.000000       12.509449         2
        12        13        18        41     9        0.000000       -0.335273         3
        12        13        18        41     9      180.000000        0.203867         4
        12        19        20        21     9        0.000000        1.917671         1
        12        19        20        21     9      180.000000       17.273760         2
        12        19        20        21     9        0.000000        0.746892         3
        12        19        20        21     9      180.000000       -1.864772         4
        12        19        20        22     9        0.000000       -1.518930         1
        12        19        20        22     9      180.000000       21.988463         2
        12        19        20        22     9        0.000000       -1.439307         3
        12        19        20        22     9      180.000000       -2.630186         4
        12        24        22        20     9        0.000000       -2.825562         1
        12        24        22        20     9      180.000000       10.925332         2
        12        24        22        20     9        0.000000       -1.470466         3
        12        24        22        20     9      180.000000       -0.300433         4
        12        24        22        23     9        0.000000       -0.538861         1
        12        24        22        23     9      180.000000        5.575422         2
        12        24        22        23     9        0.000000        0.152376         3
        12        24        22        23     9      180.000000       -0.161733         4
        13        12        11        26     9        0.000000       -0.122272         1
        13        12        11        26     9      180.000000        0.453555         2
        13        12        11        26     9        0.000000        0.146549         3
        13        12        11        26     9      180.000000        0.056301         4
        13        12        19        20     9        0.000000        0.573704         1
        13        12        19        20     9      180.000000        0.602634         2
        13        12        19        20     9        0.000000        0.267747         3
        13        12        19        20     9      180.000000        0.243559         4
        13        12        19        42     9        0.000000        1.059912         1
        13        12        19        42     9      180.000000        0.593354         2
        13        12        19        42     9        0.000000        0.126828         3
        13        12        19        42     9      180.000000       -0.016391         4
        13        12        24        22     9        0.000000        0.495500         1
        13        12        24        22     9      180.000000        0.481891         2
        13        12        24        22     9        0.000000        0.316943         3
        13        12        24        22     9      180.000000        0.846983         4
        13        12        24        25     9        0.000000       -1.152818         1
        13        12        24        25     9      180.000000        1.072200         2
        13        12        24        25     9        0.000000       -0.348036         3
        13        12        24        25     9      180.000000        0.393151         4
        13        14        15        16     9        0.000000        0.112456         1
        13        14        15        16     9      180.000000       19.076181         2
        13        14        15        16     9        0.000000       -1.528293         3
        13        14        15        16     9      180.000000       -0.501395         4
        13        14        15        38     9        0.000000        0.036242         1
        13        14        15        38     9      180.000000       15.148456         2
        13        14        15        38     9        0.000000       -0.607416         3
        13        14        15        38     9      180.000000        0.081089         4
        13        18        17        16     9        0.000000        0.112456         1
        13        18        17        16     9      180.000000       19.076181         2
        13        18        17        16     9        0.000000       -1.528293         3
        13        18        17        16     9      180.000000       -0.501395         4
        13        18        17        40     9        0.000000        0.036243         1
        13        18        17        40     9      180.000000       15.148457         2
        13        18        17        40     9        0.000000       -0.607416         3
        13        18        17        40     9      180.000000        0.081088         4
        14        13        12        19     9        0.000000       -0.346791         1
        14        13        12        19     9      180.000000        1.241989         2
        14        13        12        19     9        0.000000        0.147218         3
        14        13        12        19     9      180.000000        0.192257         4
        14        13        12        24     9        0.000000       -0.388488         1
        14        13        12        24     9      180.000000       -0.678831         2
        14        13        12        24     9        0.000000        0.177104         3
        14        13        12        24     9      180.000000        0.152568         4
        14        13        18        17     9        0.000000       -0.125590         1
        14        13        18        17     9      180.000000       19.197404         2
        14        13        18        17     9        0.000000       -1.469704         3
        14        13        18        17     9      180.000000       -0.532166         4
        14        13        18        41     9        0.000000        0.001779         1
        14        13        18        41     9      180.000000       14.559354         2
        14        13        18        41     9        0.000000       -0.693508         3
        14        13        18        41     9      180.000000        0.005835         4
        14        15        16        17     9        0.000000       -0.072947         1
        14        15        16        17     9      180.000000       18.710860         2
        14        15        16        17     9        0.000000       -1.638189         3
        14        15        16        17     9      180.000000       -0.393763         4
        14        15        16        39     9        0.000000        0.032122         1
        14        15        16        39     9      180.000000       14.422667         2
        14        15        16        39     9        0.000000       -0.779016         3
        14        15        16        39     9      180.000000        0.114208         4
        15        14        13        18     9        0.000000       -0.125590         1
        15        14        13        18     9      180.000000       19.197404         2
        15        14        13        18     9        0.000000       -1.469704         3
        15        14        13        18     9      180.000000       -0.532166         4
        15        16        17        18     9        0.000000       -0.072947         1
        15        16        17        18     9      180.000000       18.710860         2
        15        16        17        18     9        0.000000       -1.638189         3
        15        16        17        18     9      180.000000       -0.393763         4
        15        16        17        40     9        0.000000        0.017563         1
        15        16        17        40     9      180.000000       14.269724         2
        15        16        17        40     9        0.000000       -0.769057         3
        15        16        17        40     9      180.000000        0.155538         4
        16        15        14        37     9        0.000000        0.047715         1
        16        15        14        37     9      180.000000       14.992779         2
        16        15        14        37     9        0.000000       -0.684086         3
        16        15        14        37     9      180.000000        0.101543         4
        16        17        18        41     9        0.000000        0.047715         1
        16        17        18        41     9      180.000000       14.992778         2
        16        17        18        41     9        0.000000       -0.684086         3
        16        17        18        41     9      180.000000        0.101543         4
        17        16        15        38     9        0.000000        0.017563         1
        17        16        15        38     9      180.000000       14.269724         2
        17        16        15        38     9        0.000000       -0.769057         3
        17        16        15        38     9      180.000000        0.155538         4
        18        13        12        19     9        0.000000       -0.346791         1
        18        13        12        19     9      180.000000        1.241989         2
        18        13        12        19     9        0.000000        0.147218         3
        18        13        12        19     9      180.000000        0.192257         4
        18        13        12        24     9        0.000000       -0.388488         1
        18        13        12        24     9      180.000000       -0.678831         2
        18        13        12        24     9        0.000000        0.177104         3
        18        13        12        24     9      180.000000        0.152568         4
        18        13        14        37     9        0.000000        0.001779         1
        18        13        14        37     9      180.000000       14.559355         2
        18        13        14        37     9        0.000000       -0.693508         3
        18        13        14        37     9      180.000000        0.005834         4
        18        17        16        39     9        0.000000        0.032122         1
        18        17        16        39     9      180.000000       14.422667         2
        18        17        16        39     9        0.000000       -0.779016         3
        18        17        16        39     9      180.000000        0.114208         4
        19        12        11        26     9        0.000000       -0.190862         1
        19        12        11        26     9      180.000000        1.401062         2
        19        12        11        26     9        0.000000        0.066361         3
        19        12        11        26     9      180.000000        0.198965         4
        19        12        24        22     9        0.000000        0.368977         1
        19        12        24        22     9      180.000000        8.187300         2
        19        12        24        22     9        0.000000       -0.153603         3
        19        12        24        22     9      180.000000       -0.438700         4
        19        12        24        25     9        0.000000        6.446721         1
        19        12        24        25     9      180.000000        5.117101         2
        19        12        24        25     9        0.000000        0.133933         3
        19        12        24        25     9      180.000000        0.360037         4
        19        20        21        43     9        0.000000       -1.578258         1
        19        20        21        43     9      180.000000        6.607875         2
        19        20        21        43     9        0.000000        0.015932         3
        19        20        21        43     9      180.000000       -0.506730         4
        19        20        21        50     9        0.000000       -1.578258         1
        19        20        21        50     9      180.000000        6.607875         2
        19        20        21        50     9        0.000000        0.015932         3
        19        20        21        50     9      180.000000       -0.506730         4
        19        20        22        23     9        0.000000       -2.795685         1
        19        20        22        23     9      180.000000        5.725594         2
        19        20        22        23     9        0.000000       -0.188593         3
        19        20        22        23     9      180.000000        0.060182         4
        19        20        22        24     9        0.000000       -1.562447         1
        19        20        22        24     9      180.000000       14.809951         2
        19        20        22        24     9        0.000000       -2.756051         3
        19        20        22        24     9      180.000000       -1.320171         4
        20        19        12        24     9        0.000000       -2.323486         1
        20        19        12        24     9      180.000000        6.770829         2
        20        19        12        24     9        0.000000       -0.429739         3
        20        19        12        24     9      180.000000       -1.708535         4
        20        22        23        44     9        0.000000        0.021130         1
        20        22        23        44     9      180.000000        0.000117         2
        20        22        23        44     9        0.000000        0.183870         3
        20        22        23        44     9      180.000000       -0.015824         4
        20        22        23        45     9        0.000000        0.021130         1
        20        22        23        45     9      180.000000        0.000117         2
        20        22        23        45     9        0.000000        0.183870         3
        20        22        23        45     9      180.000000       -0.015824         4
        20        22        23        46     9        0.000000        0.021130         1
        20        22        23        46     9      180.000000        0.000117         2
        20        22        23        46     9        0.000000        0.183870         3
        20        22        23        46     9      180.000000       -0.015824         4
        20        22        24        25     9        0.000000        1.928663         1
        20        22        24        25     9      180.000000       16.805427         2
        20        22        24        25     9        0.000000       -0.505018         3
        20        22        24        25     9      180.000000       -0.817874         4
        21        20        19        42     9        0.000000       -0.563536         1
        21        20        19        42     9      180.000000        8.078404         2
        21        20        19        42     9        0.000000        0.471207         3
        21        20        19        42     9      180.000000       -0.472619         4
        21        20        22        23     9        0.000000        1.750032         1
        21        20        22        23     9      180.000000        7.527048         2
        21        20        22        23     9        0.000000       -0.053235         3
        21        20        22        23     9      180.000000       -0.107064         4
        21        20        22        24     9        0.000000        1.384864         1
        21        20        22        24     9      180.000000       13.000210         2
        21        20        22        24     9        0.000000       -0.230675         3
        21        20        22        24     9      180.000000       -0.772286         4
        22        20        19        42     9        0.000000       -0.583771         1
        22        20        19        42     9      180.000000        8.920952         2
        22        20        19        42     9        0.000000        0.096792         3
        22        20        19        42     9      180.000000       -0.874819         4
        22        20        21        43     9        0.000000       -0.736374         1
        22        20        21        43     9      180.000000        6.300565         2
        22        20        21        43     9        0.000000        0.313027         3
        22        20        21        43     9      180.000000       -0.635641         4
        22        20        21        50     9        0.000000       -0.736374         1
        22        20        21        50     9      180.000000        6.300565         2
        22        20        21        50     9        0.000000        0.313027         3
        22        20        21        50     9      180.000000       -0.635641         4
        23        22        24        25     9        0.000000       -0.456218         1
        23        22        24        25     9      180.000000        9.244378         2
        23        22        24        25     9        0.000000       -0.319752         3
        23        22        24        25     9      180.000000        0.297308         4
        24        12        11        26     9        0.000000       -0.533577         1
        24        12        11        26     9      180.000000       -0.496703         2
        24        12        11        26     9        0.000000        0.166156         3
        24        12        11        26     9      180.000000        0.137304         4
        24        12        19        42     9        0.000000       -0.467873         1
        24        12        19        42     9      180.000000       -0.863893         2
        24        12        19        42     9        0.000000        0.107572         3
        24        12        19        42     9      180.000000        0.174536         4
        24        22        23        44     9        0.000000       -0.064801         1
        24        22        23        44     9      180.000000       -0.077149         2
        24        22        23        44     9        0.000000       -0.306371         3
        24        22        23        44     9      180.000000        0.046923         4
        24        22        23        45     9        0.000000       -0.064801         1
        24        22        23        45     9      180.000000       -0.077149         2
        24        22        23        45     9        0.000000       -0.306371         3
        24        22        23        45     9      180.000000        0.046923         4
        24        22        23        46     9        0.000000       -0.064801         1
        24        22        23        46     9      180.000000       -0.077149         2
        24        22        23        46     9        0.000000       -0.306371         3
        24        22        23        46     9      180.000000        0.046923         4
        26         7         6        27     9        0.000000        0.015539         1
        26         7         6        27     9      180.000000        3.575017         2
        26         7         6        27     9        0.000000        0.001405         3
        26         7         6        27     9      180.000000       -0.009720         4
        26         7         8        34     9        0.000000       -0.131307         1
        26         7         8        34     9      180.000000       14.593818         2
        26         7         8        34     9        0.000000       -0.645621         3
        26         7         8        34     9      180.000000        0.039472         4
        26        11        10        36     9        0.000000        0.038708         1
        26        11        10        36     9      180.000000       14.554242         2
        26        11        10        36     9        0.000000       -0.656608         3
        26        11        10        36     9      180.000000        0.006792         4
        27         6         5        33     9        0.000000       -0.069554         1
        27         6         5        33     9      180.000000       14.157358         2
        27         6         5        33     9        0.000000       -0.692354         3
        27         6         5        33     9      180.000000        0.063139         4
        28         3         4        32     9        0.000000        0.157469         1
        28         3         4        32     9      180.000000       12.492431         2
        28         3         4        32     9        0.000000       -0.424174         3
        28         3         4        32     9      180.000000        0.183540         4
        32         4         5        33     9        0.000000       -0.155240         1
        32         4         5        33     9      180.000000       12.119871         2
        32         4         5        33     9        0.000000       -0.666447         3
        32         4         5        33     9      180.000000        0.344009         4
        34         8         9        35     9        0.000000       -0.168145         1
        34         8         9        35     9      180.000000       11.942115         2
        34         8         9        35     9        0.000000       -0.731995         3
        34         8         9        35     9      180.000000        0.317910         4
        35         9        10        36     9        0.000000       -0.117657         1
        35         9        10        36     9      180.000000       11.932395         2
        35         9        10        36     9        0.000000       -0.694352         3
        35         9        10        36     9      180.000000        0.275937         4
        37        14        15        38     9        0.000000       -0.132351         1
        37        14        15        38     9      180.000000       12.096763         2
        37        14        15        38     9        0.000000       -0.739346         3
        37        14        15        38     9      180.000000        0.287473         4
        38        15        16        39     9        0.000000       -0.081260         1
        38        15        16        39     9      180.000000       11.518641         2
        38        15        16        39     9        0.000000       -0.598806         3
        38        15        16        39     9      180.000000        0.259343         4
        39        16        17        40     9        0.000000       -0.081259         1
        39        16        17        40     9      180.000000       11.518639         2
        39        16        17        40     9        0.000000       -0.598806         3
        39        16        17        40     9      180.000000        0.259344         4
        40        17        18        41     9        0.000000       -0.132351         1
        40        17        18        41     9      180.000000       12.096765         2
        40        17        18        41     9        0.000000       -0.739346         3
        40        17        18        41     9      180.000000        0.287473         4
        48        27        28        49     9        0.000000       -0.155241         1
        48        27        28        49     9      180.000000       12.119871         2
        48        27        28        49     9        0.000000       -0.666447         3
        48        27        28        49     9      180.000000        0.344009         4

[ dihedrals ] ; impropers
;       ai        aj        ak        al funct           phase               k        pn
         3         2         4        28     4      180.000000        0.407429         2
         3         4        28         2     4      180.000000        0.407429         2
         3        28         2         4     4      180.000000        0.407429         2
         9         8        10        35     4      180.000000        0.196359         2
         9        10        35         8     4      180.000000        0.196359         2
         9        35         8        10     4      180.000000        0.196359         2
        14        13        15        37     4      180.000000        0.223527         2
        14        15        37        13     4      180.000000        0.223527         2
        14        37        13        15     4      180.000000        0.223527         2
        15        14        16        38     4      180.000000        0.650928         2
        15        16        38        14     4      180.000000        0.650928         2
        15        38        14        16     4      180.000000        0.650928         2
        16        15        17        39     4      180.000000        1.596565         2
        16        17        39        15     4      180.000000        1.596565         2
        16        39        15        17     4      180.000000        1.596565         2
        17        16        18        40     4      180.000000        0.650928         2
        17        18        40        16     4      180.000000        0.650928         2
        17        40        16        18     4      180.000000        0.650928         2
        18        13        17        41     4      180.000000        0.223528         2
        18        17        41        13     4      180.000000        0.223528         2
        18        41        13        17     4      180.000000        0.223528         2
        20        19        21        22     4      180.000000       10.558912         2
        20        21        22        19     4      180.000000       10.558912         2
        20        22        19        21     4      180.000000       10.558912         2
        24        12        22        25     4      180.000000       27.376335         2
        24        22        25        12     4      180.000000       27.376335         2
        24        25        12        22     4      180.000000       27.376335         2

[ pairs ]
;       ai        aj funct
         1         4     1
         1        28     1
         2         5     1
         2        27     1
         2        32     1
         2        49     1
         3         6     1
         3        29     1
         3        30     1
         3        31     1
         3        33     1
         3        48     1
         4         7     1
         4        27     1
         4        49     1
         5         8     1
         5        26     1
         5        28     1
         5        48     1
         6         9     1
         6        11     1
         6        32     1
         6        34     1
         6        47     1
         6        49     1
         7        10     1
         7        12     1
         7        28     1
         7        33     1
         7        35     1
         7        48     1
         8        11     1
         8        27     1
         8        36     1
         8        47     1
         9        12     1
         9        26     1
        10        13     1
        10        19     1
        10        24     1
        10        34     1
        10        47     1
        11        14     1
        11        18     1
        11        20     1
        11        22     1
        11        25     1
        11        35     1
        11        42     1
        12        15     1
        12        17     1
        12        21     1
        12        23     1
        12        36     1
        12        37     1
        12        41     1
        12        47     1
        13        16     1
        13        20     1
        13        22     1
        13        25     1
        13        26     1
        13        38     1
        13        40     1
        13        42     1
        14        17     1
        14        19     1
        14        24     1
        14        39     1
        14        41     1
        15        18     1
        15        40     1
        16        37     1
        16        41     1
        17        38     1
        18        19     1
        18        24     1
        18        37     1
        18        39     1
        19        23     1
        19        25     1
        19        26     1
        19        43     1
        19        50     1
        20        25     1
        20        44     1
        20        45     1
        20        46     1
        21        23     1
        21        24     1
        21        42     1
        22        42     1
        22        43     1
        22        50     1
        23        25     1
        24        26     1
        24        42     1
        24        44     1
        24        45     1
        24        46     1
        26        27     1
        26        34     1
        26        36     1
        27        33     1
        28        32     1
        32        33     1
        34        35     1
        35        36     1
        37        38     1
        38        39     1
        39        40     1
        40        41     1
        48        49     1
