; ITP file created by ByteFF-ML, 2026-02-21 08:13:38.942406

[ atomtypes ]
;name           bonded.type        at.num        mass        charge   ptype           sigma         epsilon
 c0bf                                   6      0.0000       0.00000       A     3.39909e-01     4.52588e-01
 n1bf                                   7      0.0000       0.00000       A     3.18287e-01     7.03250e-01
 c2bf                                   6      0.0000       0.00000       A     3.31264e-01     4.10570e-01
 n3bf                                   7      0.0000       0.00000       A     3.36721e-01     4.77448e-01
 n4bf                                   7      0.0000       0.00000       A     3.26713e-01     6.48769e-01
 c5bf                                   6      0.0000       0.00000       A     3.39536e-01     4.48869e-01
 c6bf                                   6      0.0000       0.00000       A     3.31648e-01     4.15198e-01
 c7bf                                   6      0.0000       0.00000       A     3.31488e-01     4.13867e-01
 c8bf                                   6      0.0000       0.00000       A     3.31499e-01     4.13444e-01
 c9bf                                   6      0.0000       0.00000       A     3.31504e-01     4.12557e-01
 c10bf                                  6      0.0000       0.00000       A     3.31400e-01     4.13189e-01
 c11bf                                  6      0.0000       0.00000       A     3.31253e-01     4.13573e-01
 c12bf                                  6      0.0000       0.00000       A     3.31491e-01     4.12447e-01
 c13bf                                  6      0.0000       0.00000       A     3.31443e-01     4.13069e-01
 c14bf                                  6      0.0000       0.00000       A     3.31503e-01     4.12916e-01
 n15bf                                  7      0.0000       0.00000       A     3.38304e-01     3.92853e-01
 c16bf                                  6      0.0000       0.00000       A     3.31503e-01     4.13605e-01
 c17bf                                  6      0.0000       0.00000       A     3.31573e-01     4.14790e-01
 c18bf                                  6      0.0000       0.00000       A     3.39513e-01     4.48947e-01
 c19bf                                  6      0.0000       0.00000       A     3.39757e-01     4.48772e-01
 c20bf                                  6      0.0000       0.00000       A     3.39757e-01     4.48772e-01
 c21bf                                  6      0.0000       0.00000       A     3.31408e-01     4.15537e-01
 o22bf                                  8      0.0000       0.00000       A     3.04503e-01     6.16156e-01
 h23bf                                  1      0.0000       0.00000       A     2.42205e-01     8.61909e-02
 h24bf                                  1      0.0000       0.00000       A     2.42205e-01     8.61909e-02
 h25bf                                  1      0.0000       0.00000       A     2.42205e-01     8.61909e-02
 h26bf                                  1      0.0000       0.00000       A     1.10384e-01     3.90095e-02
 h27bf                                  1      0.0000       0.00000       A     1.10320e-01     4.03279e-02
 h28bf                                  1      0.0000       0.00000       A     2.62572e-01     6.77436e-02
 h29bf                                  1      0.0000       0.00000       A     2.62513e-01     6.74259e-02
 h30bf                                  1      0.0000       0.00000       A     2.62472e-01     6.74738e-02
 h31bf                                  1      0.0000       0.00000       A     2.62505e-01     6.74786e-02
 h32bf                                  1      0.0000       0.00000       A     2.62496e-01     6.73302e-02
 h33bf                                  1      0.0000       0.00000       A     2.53706e-01     6.70365e-02
 h34bf                                  1      0.0000       0.00000       A     2.53647e-01     6.70142e-02
 h35bf                                  1      0.0000       0.00000       A     2.62565e-01     6.76829e-02
 h36bf                                  1      0.0000       0.00000       A     2.59520e-01     8.50290e-02
 h37bf                                  1      0.0000       0.00000       A     2.60287e-01     8.57424e-02
 h38bf                                  1      0.0000       0.00000       A     2.60287e-01     8.57424e-02
 h39bf                                  1      0.0000       0.00000       A     2.60287e-01     8.57424e-02
 h40bf                                  1      0.0000       0.00000       A     2.60287e-01     8.57424e-02
 h41bf                                  1      0.0000       0.00000       A     1.10384e-01     3.90095e-02

[ moleculetype ]
;name             nrexcl
 CAT-17d               3

[ atoms ]
;       nr            type      resi   res      atom      cgnr      charge          mass ; qtot
         1            c0bf         1   UNL        c0         1     0.07261       12.0110 ; qtot    0.073
         2            n1bf         1   UNL        n1         2    -0.59326       14.0070 ; qtot   -0.521
         3            c2bf         1   UNL        c2         3     0.92602       12.0110 ; qtot    0.405
         4            n3bf         1   UNL        n3         4    -0.58697       14.0070 ; qtot   -0.182
         5            n4bf         1   UNL        n4         5    -0.61445       14.0070 ; qtot   -0.796
         6            c5bf         1   UNL        c5         6     0.12041       12.0110 ; qtot   -0.676
         7            c6bf         1   UNL        c6         7    -0.12404       12.0110 ; qtot   -0.800
         8            c7bf         1   UNL        c7         8    -0.07458       12.0110 ; qtot   -0.874
         9            c8bf         1   UNL        c8         9    -0.09643       12.0110 ; qtot   -0.971
        10            c9bf         1   UNL        c9        10    -0.09589       12.0110 ; qtot   -1.067
        11           c10bf         1   UNL       c10        11    -0.02282       12.0110 ; qtot   -1.089
        12           c11bf         1   UNL       c11        12    -0.09099       12.0110 ; qtot   -1.180
        13           c12bf         1   UNL       c12        13    -0.06765       12.0110 ; qtot   -1.248
        14           c13bf         1   UNL       c13        14    -0.16498       12.0110 ; qtot   -1.413
        15           c14bf         1   UNL       c14        15     0.33415       12.0110 ; qtot   -1.079
        16           n15bf         1   UNL       n15        16    -0.65935       14.0070 ; qtot   -1.738
        17           c16bf         1   UNL       c16        17     0.33820       12.0110 ; qtot   -1.400
        18           c17bf         1   UNL       c17        18    -0.06222       12.0110 ; qtot   -1.462
        19           c18bf         1   UNL       c18        19    -0.16654       12.0110 ; qtot   -1.629
        20           c19bf         1   UNL       c19        20    -0.10388       12.0110 ; qtot   -1.733
        21           c20bf         1   UNL       c20        21    -0.10388       12.0110 ; qtot   -1.837
        22           c21bf         1   UNL       c21        22     0.55423       12.0110 ; qtot   -1.282
        23           o22bf         1   UNL       o22        23    -0.39240       15.9990 ; qtot   -1.675
        24           h23bf         1   UNL       h23        24     0.08926        1.0080 ; qtot   -1.585
        25           h24bf         1   UNL       h24        25     0.08926        1.0080 ; qtot   -1.496
        26           h25bf         1   UNL       h25        26     0.08926        1.0080 ; qtot   -1.407
        27           h26bf         1   UNL       h26        27     0.38441        1.0080 ; qtot   -1.023
        28           h27bf         1   UNL       h27        28     0.41057        1.0080 ; qtot   -0.612
        29           h28bf         1   UNL       h28        29     0.12888        1.0080 ; qtot   -0.483
        30           h29bf         1   UNL       h29        30     0.11984        1.0080 ; qtot   -0.363
        31           h30bf         1   UNL       h30        31     0.11718        1.0080 ; qtot   -0.246
        32           h31bf         1   UNL       h31        32     0.12334        1.0080 ; qtot   -0.123
        33           h32bf         1   UNL       h32        33     0.12757        1.0080 ; qtot    0.005
        34           h33bf         1   UNL       h33        34     0.02484        1.0080 ; qtot    0.030
        35           h34bf         1   UNL       h34        35     0.02394        1.0080 ; qtot    0.054
        36           h35bf         1   UNL       h35        36     0.13080        1.0080 ; qtot    0.184
        37           h36bf         1   UNL       h36        37     0.10393        1.0080 ; qtot    0.288
        38           h37bf         1   UNL       h37        38     0.08180        1.0080 ; qtot    0.370
        39           h38bf         1   UNL       h38        39     0.08180        1.0080 ; qtot    0.452
        40           h39bf         1   UNL       h39        40     0.08180        1.0080 ; qtot    0.534
        41           h40bf         1   UNL       h40        41     0.08180        1.0080 ; qtot    0.616
        42           h41bf         1   UNL       h41        42     0.38443        1.0080 ; qtot    1.000

[ bonds ]
;       ai        aj funct               r               k
         1         2     1        0.146737   195108.827344
         1        24     1        0.109021   312351.867139
         1        25     1        0.109021   312351.867139
         1        26     1        0.109021   312351.867139
         2         3     1        0.135493   307944.238672
         2        22     1        0.142426   148868.502490
         3         4     1        0.133058   418634.532812
         3         5     1        0.133302   386902.376074
         4        27     1        0.101328   425154.871875
         4        42     1        0.101328   425154.871875
         5         6     1        0.148913   139630.299951
         5        28     1        0.101337   424655.417090
         6         7     1        0.152262   166830.385889
         6        19     1        0.152416   168644.784741
         6        22     1        0.154577   128147.845166
         7         8     1        0.140053   293210.348047
         7        18     1        0.139868   296592.227441
         8         9     1        0.139655   314826.183203
         8        29     1        0.108541   320854.320020
         9        10     1        0.139603   315779.381348
         9        30     1        0.108618   319848.540967
        10        11     1        0.140560   285172.364111
        10        31     1        0.108594   318502.760840
        11        12     1        0.148067   216662.479639
        11        18     1        0.140406   286829.977881
        12        13     1        0.140487   287170.872754
        12        17     1        0.140821   270580.945020
        13        14     1        0.139424   324172.305566
        13        32     1        0.108594   319745.166748
        14        15     1        0.139872   293580.993652
        14        33     1        0.108569   322424.724561
        15        16     1        0.134079   312417.574121
        15        34     1        0.108796   316313.668750
        16        17     1        0.133713   326672.133203
        17        35     1        0.108826   314383.318652
        18        36     1        0.108523   319695.037402
        19        20     1        0.151266   194349.289868
        19        21     1        0.151266   194349.289868
        19        37     1        0.108537   319742.587500
        20        21     1        0.151225   199579.992139
        20        38     1        0.108483   323654.872656
        20        39     1        0.108483   323654.872656
        21        40     1        0.108483   323654.872656
        21        41     1        0.108483   323654.872656
        22        23     1        0.120460   715141.721680

[ angles ]
;       ai        aj        ak funct           theta             cth
         1         2         3     1      126.596352      465.851780
         1         2        22     1      123.154587      533.875393
         2         1        24     1      109.233238      484.690090
         2         1        25     1      109.233238      484.690090
         2         1        26     1      109.233238      484.690090
         2         3         4     1      123.849709      628.052901
         2         3         5     1      111.327248      587.108806
         2        22         6     1      106.404617      167.360000
         2        22        23     1      124.414818      651.466344
         3         2        22     1      109.854813      830.456710
         3         4        27     1      121.317360      450.542985
         3         4        42     1      121.317360      450.542985
         3         5         6     1      111.918991      621.631084
         3         5        28     1      123.479996      428.649734
         4         3         5     1      125.425247      615.144594
         5         6         7     1      110.812096      603.925695
         5         6        19     1      110.691429      585.051728
         5         6        22     1      100.735207      334.101395
         6         5        28     1      121.067909      366.714263
         6         7         8     1      120.241966      490.003054
         6         7        18     1      120.049706      446.194239
         6        19        20     1      121.414719      410.920436
         6        19        21     1      121.414719      410.920436
         6        19        37     1      112.401169      424.131102
         6        22        23     1      127.712059      357.779276
         7         6        19     1      114.064102      533.010738
         7         6        22     1      111.595871      602.042333
         7         8         9     1      119.710999      677.588381
         7         8        29     1      120.439598      409.425302
         7        18        11     1      121.152100      665.251403
         7        18        36     1      119.798691      407.978593
         8         7        18     1      119.589684      687.179991
         8         9        10     1      120.354919      724.479813
         8         9        30     1      119.842361      433.129134
         9         8        29     1      119.735275      425.147000
         9        10        11     1      120.392822      703.946955
         9        10        31     1      119.750404      430.330076
        10         9        30     1      119.794922      436.724312
        10        11        12     1      120.848282      511.012689
        10        11        18     1      118.387878      663.436353
        11        10        31     1      119.810204      429.176916
        11        12        13     1      121.854591      485.782823
        11        12        17     1      121.292709      544.680304
        11        18        36     1      119.047424      421.215722
        12        11        18     1      120.828552      423.355604
        12        13        14     1      119.409645      762.832529
        12        13        32     1      120.209274      424.316374
        12        17        16     1      124.452438      733.697241
        12        17        35     1      119.822731      406.847076
        13        12        17     1      116.721230      612.028875
        13        14        15     1      118.707130      770.352761
        13        14        33     1      120.973221      437.284086
        14        13        32     1      120.391373      434.058015
        14        15        16     1      123.149353      698.436302
        14        15        34     1      120.680199      412.468432
        15        14        33     1      120.286804      450.813998
        15        16        17     1      117.516129      710.958360
        16        15        34     1      116.197464      351.729311
        16        17        35     1      115.875732      338.294525
        19         6        22     1      110.442825      625.809785
        19        20        21     1       59.965576      167.360000
        19        20        38     1      117.870682      377.010219
        19        20        39     1      117.870682      377.010219
        19        21        20     1       59.965576      167.360000
        19        21        40     1      117.870667      377.010219
        19        21        41     1      117.870667      377.010219
        20        19        21     1       60.013451      167.360000
        20        19        37     1      116.334984      367.698112
        20        21        40     1      118.112976      373.159862
        20        21        41     1      118.112976      373.159862
        21        19        37     1      116.334984      367.698112
        21        20        38     1      118.112976      373.159862
        21        20        39     1      118.112976      373.159862
        24         1        25     1      109.817101      349.345230
        24         1        26     1      109.817101      349.345230
        25         1        26     1      109.817101      349.345230
        27         4        42     1      117.449059      314.118256
        38        20        39     1      114.508240      310.792335
        40        21        41     1      114.508240      310.792367

[ dihedrals ] ; propers for gromacs 4.5 or higher, use funct 9
;       ai        aj        ak        al funct           phase               k        pn
         1         2         3         4     9        0.000000        1.681251         1
         1         2         3         4     9      180.000000        7.565632         2
         1         2         3         4     9        0.000000       -0.084196         3
         1         2         3         4     9      180.000000       -0.117755         4
         1         2         3         5     9        0.000000       -2.595472         1
         1         2         3         5     9      180.000000        5.687022         2
         1         2         3         5     9        0.000000       -0.270197         3
         1         2         3         5     9      180.000000        0.071015         4
         1         2        22         6     9        0.000000       -0.927347         1
         1         2        22         6     9      180.000000        5.632267         2
         1         2        22         6     9        0.000000        0.194516         3
         1         2        22         6     9      180.000000       -0.146003         4
         1         2        22        23     9        0.000000       -0.372579         1
         1         2        22        23     9      180.000000        9.241161         2
         1         2        22        23     9        0.000000       -0.366744         3
         1         2        22        23     9      180.000000        0.272898         4
         2         3         4        27     9        0.000000       -0.692757         1
         2         3         4        27     9      180.000000        6.266683         2
         2         3         4        27     9        0.000000        0.276010         3
         2         3         4        27     9      180.000000       -0.640727         4
         2         3         4        42     9        0.000000       -0.692758         1
         2         3         4        42     9      180.000000        6.266682         2
         2         3         4        42     9        0.000000        0.276009         3
         2         3         4        42     9      180.000000       -0.640727         4
         2         3         5         6     9        0.000000       -1.503540         1
         2         3         5         6     9      180.000000       22.318135         2
         2         3         5         6     9        0.000000       -1.492200         3
         2         3         5         6     9      180.000000       -2.587925         4
         2         3         5        28     9        0.000000       -0.423671         1
         2         3         5        28     9      180.000000        8.960263         2
         2         3         5        28     9        0.000000        0.006719         3
         2         3         5        28     9      180.000000       -0.794589         4
         2        22         6         5     9        0.000000        0.846263         1
         2        22         6         5     9      180.000000        7.674253         2
         2        22         6         5     9        0.000000       -0.129959         3
         2        22         6         5     9      180.000000       -0.374181         4
         2        22         6         7     9        0.000000        0.580673         1
         2        22         6         7     9      180.000000        0.779047         2
         2        22         6         7     9        0.000000        0.419813         3
         2        22         6         7     9      180.000000        0.785128         4
         2        22         6        19     9        0.000000       -1.663485         1
         2        22         6        19     9      180.000000        1.743966         2
         2        22         6        19     9        0.000000        0.204177         3
         2        22         6        19     9      180.000000        0.678616         4
         3         2         1        24     9        0.000000        0.017242         1
         3         2         1        24     9      180.000000        0.009277         2
         3         2         1        24     9        0.000000        0.186287         3
         3         2         1        24     9      180.000000       -0.015663         4
         3         2         1        25     9        0.000000        0.017242         1
         3         2         1        25     9      180.000000        0.009277         2
         3         2         1        25     9        0.000000        0.186287         3
         3         2         1        25     9      180.000000       -0.015663         4
         3         2         1        26     9        0.000000        0.017242         1
         3         2         1        26     9      180.000000        0.009277         2
         3         2         1        26     9        0.000000        0.186287         3
         3         2         1        26     9      180.000000       -0.015663         4
         3         2        22         6     9        0.000000       -3.199271         1
         3         2        22         6     9      180.000000       11.134570         2
         3         2        22         6     9        0.000000       -1.424547         3
         3         2        22         6     9      180.000000       -0.354714         4
         3         2        22        23     9        0.000000        1.863270         1
         3         2        22        23     9      180.000000       16.900331         2
         3         2        22        23     9        0.000000       -0.487083         3
         3         2        22        23     9      180.000000       -0.863534         4
         3         5         6         7     9        0.000000        0.012918         1
         3         5         6         7     9      180.000000        0.605239         2
         3         5         6         7     9        0.000000        0.247695         3
         3         5         6         7     9      180.000000        0.225342         4
         3         5         6        19     9        0.000000       -3.192218         1
         3         5         6        19     9      180.000000        1.786951         2
         3         5         6        19     9        0.000000        0.247241         3
         3         5         6        19     9      180.000000        0.162776         4
         3         5         6        22     9        0.000000       -2.410529         1
         3         5         6        22     9      180.000000        7.090547         2
         3         5         6        22     9        0.000000       -0.379500         3
         3         5         6        22     9      180.000000       -1.884005         4
         4         3         2        22     9        0.000000        1.215506         1
         4         3         2        22     9      180.000000       13.015313         2
         4         3         2        22     9        0.000000       -0.233096         3
         4         3         2        22     9      180.000000       -0.792367         4
         4         3         5         6     9        0.000000        2.225656         1
         4         3         5         6     9      180.000000       17.710702         2
         4         3         5         6     9        0.000000        0.846330         3
         4         3         5         6     9      180.000000       -1.899073         4
         4         3         5        28     9        0.000000       -0.804130         1
         4         3         5        28     9      180.000000        8.071696         2
         4         3         5        28     9        0.000000        0.396356         3
         4         3         5        28     9      180.000000       -0.383884         4
         5         3         2        22     9        0.000000       -1.530473         1
         5         3         2        22     9      180.000000       14.535260         2
         5         3         2        22     9        0.000000       -2.812514         3
         5         3         2        22     9      180.000000       -1.257192         4
         5         3         4        27     9        0.000000       -1.912809         1
         5         3         4        27     9      180.000000        6.401111         2
         5         3         4        27     9        0.000000       -0.119590         3
         5         3         4        27     9      180.000000       -0.499018         4
         5         3         4        42     9        0.000000       -1.912809         1
         5         3         4        42     9      180.000000        6.401112         2
         5         3         4        42     9        0.000000       -0.119590         3
         5         3         4        42     9      180.000000       -0.499018         4
         5         6         7         8     9        0.000000       -0.231461         1
         5         6         7         8     9      180.000000        1.367796         2
         5         6         7         8     9        0.000000        0.169382         3
         5         6         7         8     9      180.000000        0.152540         4
         5         6         7        18     9        0.000000       -0.088742         1
         5         6         7        18     9      180.000000        1.421687         2
         5         6         7        18     9        0.000000        0.103808         3
         5         6         7        18     9      180.000000        0.135944         4
         5         6        19        20     9        0.000000        0.135020         1
         5         6        19        20     9      180.000000       -0.526363         2
         5         6        19        20     9        0.000000        1.071462         3
         5         6        19        20     9      180.000000        0.128480         4
         5         6        19        21     9        0.000000        0.135020         1
         5         6        19        21     9      180.000000       -0.526363         2
         5         6        19        21     9        0.000000        1.071462         3
         5         6        19        21     9      180.000000        0.128480         4
         5         6        19        37     9        0.000000       -0.825185         1
         5         6        19        37     9      180.000000       -0.748652         2
         5         6        19        37     9        0.000000        1.187461         3
         5         6        19        37     9      180.000000       -0.113455         4
         5         6        22        23     9        0.000000        6.954345         1
         5         6        22        23     9      180.000000        5.214521         2
         5         6        22        23     9        0.000000        0.085529         3
         5         6        22        23     9      180.000000        0.381754         4
         6         7         8         9     9        0.000000        0.175751         1
         6         7         8         9     9      180.000000       14.708349         2
         6         7         8         9     9        0.000000       -0.202608         3
         6         7         8         9     9      180.000000       -0.099356         4
         6         7         8        29     9        0.000000       -0.024047         1
         6         7         8        29     9      180.000000       12.655440         2
         6         7         8        29     9        0.000000       -0.307111         3
         6         7         8        29     9      180.000000        0.222241         4
         6         7        18        11     9        0.000000        0.173636         1
         6         7        18        11     9      180.000000       14.562409         2
         6         7        18        11     9        0.000000       -0.131782         3
         6         7        18        11     9      180.000000       -0.179423         4
         6         7        18        36     9        0.000000       -0.029778         1
         6         7        18        36     9      180.000000       12.773270         2
         6         7        18        36     9        0.000000       -0.300560         3
         6         7        18        36     9      180.000000        0.221157         4
         6        19        20        21     9        0.000000       36.756372         1
         6        19        20        21     9      180.000000       -1.256455         2
         6        19        20        21     9        0.000000        1.578942         3
         6        19        20        21     9      180.000000       11.424949         4
         6        19        20        38     9        0.000000        0.702705         1
         6        19        20        38     9      180.000000       -1.580479         2
         6        19        20        38     9        0.000000        0.019185         3
         6        19        20        38     9      180.000000        1.344229         4
         6        19        20        39     9        0.000000        0.702705         1
         6        19        20        39     9      180.000000       -1.580479         2
         6        19        20        39     9        0.000000        0.019185         3
         6        19        20        39     9      180.000000        1.344229         4
         6        19        21        20     9        0.000000       36.756372         1
         6        19        21        20     9      180.000000       -1.256455         2
         6        19        21        20     9        0.000000        1.578942         3
         6        19        21        20     9      180.000000       11.424949         4
         6        19        21        40     9        0.000000        0.702705         1
         6        19        21        40     9      180.000000       -1.580479         2
         6        19        21        40     9        0.000000        0.019185         3
         6        19        21        40     9      180.000000        1.344229         4
         6        19        21        41     9        0.000000        0.702705         1
         6        19        21        41     9      180.000000       -1.580479         2
         6        19        21        41     9        0.000000        0.019185         3
         6        19        21        41     9      180.000000        1.344229         4
         7         6         5        28     9        0.000000        1.059554         1
         7         6         5        28     9      180.000000        0.527404         2
         7         6         5        28     9        0.000000        0.152015         3
         7         6         5        28     9      180.000000       -0.043896         4
         7         6        19        20     9        0.000000       -0.047011         1
         7         6        19        20     9      180.000000        0.459078         2
         7         6        19        20     9        0.000000        1.284585         3
         7         6        19        20     9      180.000000        0.092191         4
         7         6        19        21     9        0.000000       -0.047011         1
         7         6        19        21     9      180.000000        0.459078         2
         7         6        19        21     9        0.000000        1.284585         3
         7         6        19        21     9      180.000000        0.092191         4
         7         6        19        37     9        0.000000        0.063877         1
         7         6        19        37     9      180.000000        0.865171         2
         7         6        19        37     9        0.000000        1.585218         3
         7         6        19        37     9      180.000000        0.061512         4
         7         6        22        23     9        0.000000       -0.842678         1
         7         6        22        23     9      180.000000        1.204221         2
         7         6        22        23     9        0.000000       -0.336939         3
         7         6        22        23     9      180.000000        0.433070         4
         7         8         9        10     9        0.000000        0.109050         1
         7         8         9        10     9      180.000000       18.616527         2
         7         8         9        10     9        0.000000       -1.515084         3
         7         8         9        10     9      180.000000       -0.456086         4
         7         8         9        30     9        0.000000        0.071512         1
         7         8         9        30     9      180.000000       15.083015         2
         7         8         9        30     9        0.000000       -0.584435         3
         7         8         9        30     9      180.000000        0.085537         4
         7        18        11        10     9        0.000000       -0.075391         1
         7        18        11        10     9      180.000000       18.689423         2
         7        18        11        10     9        0.000000       -1.564938         3
         7        18        11        10     9      180.000000       -0.491855         4
         7        18        11        12     9        0.000000        0.329419         1
         7        18        11        12     9      180.000000       17.007015         2
         7        18        11        12     9        0.000000       -0.124599         3
         7        18        11        12     9      180.000000       -0.454506         4
         8         7         6        19     9        0.000000       -0.241508         1
         8         7         6        19     9      180.000000        1.377441         2
         8         7         6        19     9        0.000000        0.140578         3
         8         7         6        19     9      180.000000        0.090995         4
         8         7         6        22     9        0.000000       -0.307022         1
         8         7         6        22     9      180.000000       -0.481875         2
         8         7         6        22     9        0.000000        0.144675         3
         8         7         6        22     9      180.000000        0.132200         4
         8         7        18        11     9        0.000000       -0.074262         1
         8         7        18        11     9      180.000000       18.993608         2
         8         7        18        11     9        0.000000       -1.475294         3
         8         7        18        11     9      180.000000       -0.449882         4
         8         7        18        36     9        0.000000        0.035719         1
         8         7        18        36     9      180.000000       14.339579         2
         8         7        18        36     9        0.000000       -0.689339         3
         8         7        18        36     9      180.000000        0.075035         4
         8         9        10        11     9        0.000000       -0.019414         1
         8         9        10        11     9      180.000000       18.748290         2
         8         9        10        11     9        0.000000       -1.508093         3
         8         9        10        11     9      180.000000       -0.333625         4
         8         9        10        31     9        0.000000        0.077439         1
         8         9        10        31     9      180.000000       14.585817         2
         8         9        10        31     9        0.000000       -0.742600         3
         8         9        10        31     9      180.000000        0.171578         4
         9         8         7        18     9        0.000000       -0.132125         1
         9         8         7        18     9      180.000000       19.083595         2
         9         8         7        18     9        0.000000       -1.437675         3
         9         8         7        18     9      180.000000       -0.459673         4
         9        10        11        12     9        0.000000        0.251307         1
         9        10        11        12     9      180.000000       16.333881         2
         9        10        11        12     9        0.000000       -0.188917         3
         9        10        11        12     9      180.000000       -0.287206         4
         9        10        11        18     9        0.000000       -0.221954         1
         9        10        11        18     9      180.000000       18.763375         2
         9        10        11        18     9        0.000000       -1.501077         3
         9        10        11        18     9      180.000000       -0.353437         4
        10         9         8        29     9        0.000000        0.052747         1
        10         9         8        29     9      180.000000       14.634508         2
        10         9         8        29     9        0.000000       -0.634940         3
        10         9         8        29     9      180.000000        0.081292         4
        10        11        12        13     9        0.000000        0.011972         1
        10        11        12        13     9      180.000000        3.042919         2
        10        11        12        13     9        0.000000        0.050582         3
        10        11        12        13     9      180.000000       -0.149194         4
        10        11        12        17     9        0.000000       -0.053991         1
        10        11        12        17     9      180.000000        2.639018         2
        10        11        12        17     9        0.000000        0.043576         3
        10        11        12        17     9      180.000000       -0.196181         4
        10        11        18        36     9        0.000000       -0.149858         1
        10        11        18        36     9      180.000000       14.735476         2
        10        11        18        36     9        0.000000       -0.609084         3
        10        11        18        36     9      180.000000       -0.028787         4
        11        10         9        30     9        0.000000       -0.052957         1
        11        10         9        30     9      180.000000       14.804769         2
        11        10         9        30     9        0.000000       -0.599439         3
        11        10         9        30     9      180.000000        0.095523         4
        11        12        13        14     9        0.000000        0.264980         1
        11        12        13        14     9      180.000000       16.193589         2
        11        12        13        14     9        0.000000       -0.021536         3
        11        12        13        14     9      180.000000       -0.318578         4
        11        12        13        32     9        0.000000       -0.041416         1
        11        12        13        32     9      180.000000       13.027405         2
        11        12        13        32     9        0.000000       -0.162074         3
        11        12        13        32     9      180.000000        0.159596         4
        11        12        17        16     9        0.000000        0.391502         1
        11        12        17        16     9      180.000000       14.898826         2
        11        12        17        16     9        0.000000        0.028374         3
        11        12        17        16     9      180.000000       -0.447023         4
        11        12        17        35     9        0.000000        0.081640         1
        11        12        17        35     9      180.000000       12.840524         2
        11        12        17        35     9        0.000000       -0.136968         3
        11        12        17        35     9      180.000000        0.175912         4
        12        11        10        31     9        0.000000       -0.119533         1
        12        11        10        31     9      180.000000       13.422787         2
        12        11        10        31     9        0.000000       -0.255676         3
        12        11        10        31     9      180.000000        0.164517         4
        12        11        18        36     9        0.000000       -0.117222         1
        12        11        18        36     9      180.000000       13.381292         2
        12        11        18        36     9        0.000000       -0.166648         3
        12        11        18        36     9      180.000000        0.158129         4
        12        13        14        15     9        0.000000        0.002367         1
        12        13        14        15     9      180.000000       18.599327         2
        12        13        14        15     9        0.000000       -1.633145         3
        12        13        14        15     9      180.000000       -0.396585         4
        12        13        14        33     9        0.000000       -0.097406         1
        12        13        14        33     9      180.000000       14.886611         2
        12        13        14        33     9        0.000000       -0.594081         3
        12        13        14        33     9      180.000000        0.090304         4
        12        17        16        15     9        0.000000        0.160466         1
        12        17        16        15     9      180.000000       23.356428         2
        12        17        16        15     9        0.000000       -0.599752         3
        12        17        16        15     9      180.000000       -0.131158         4
        13        12        11        18     9        0.000000       -0.009514         1
        13        12        11        18     9      180.000000        3.156001         2
        13        12        11        18     9        0.000000        0.036457         3
        13        12        11        18     9      180.000000       -0.148258         4
        13        12        17        16     9        0.000000       -0.003166         1
        13        12        17        16     9      180.000000       16.650304         2
        13        12        17        16     9        0.000000       -0.620874         3
        13        12        17        16     9      180.000000       -0.285200         4
        13        12        17        35     9        0.000000       -0.137787         1
        13        12        17        35     9      180.000000       13.228260         2
        13        12        17        35     9        0.000000       -0.415981         3
        13        12        17        35     9      180.000000        0.120346         4
        13        14        15        16     9        0.000000       -0.100528         1
        13        14        15        16     9      180.000000       17.614313         2
        13        14        15        16     9        0.000000       -0.895105         3
        13        14        15        16     9      180.000000       -0.423586         4
        13        14        15        34     9        0.000000        0.091181         1
        13        14        15        34     9      180.000000       13.692106         2
        13        14        15        34     9        0.000000       -0.522794         3
        13        14        15        34     9      180.000000        0.095987         4
        14        13        12        17     9        0.000000       -0.144626         1
        14        13        12        17     9      180.000000       17.429033         2
        14        13        12        17     9        0.000000       -1.531794         3
        14        13        12        17     9      180.000000       -0.353916         4
        14        15        16        17     9        0.000000        0.218537         1
        14        15        16        17     9      180.000000       22.121822         2
        14        15        16        17     9        0.000000       -0.658047         3
        14        15        16        17     9      180.000000       -0.202756         4
        15        14        13        32     9        0.000000        0.054958         1
        15        14        13        32     9      180.000000       14.297722         2
        15        14        13        32     9        0.000000       -0.667066         3
        15        14        13        32     9      180.000000        0.189880         4
        15        16        17        35     9        0.000000        1.058833         1
        15        16        17        35     9      180.000000       21.254754         2
        15        16        17        35     9        0.000000        0.181755         3
        15        16        17        35     9      180.000000       -0.161518         4
        16        15        14        33     9        0.000000       -0.048068         1
        16        15        14        33     9      180.000000       13.610834         2
        16        15        14        33     9        0.000000       -0.353285         3
        16        15        14        33     9      180.000000       -0.011482         4
        17        12        11        18     9        0.000000       -0.018679         1
        17        12        11        18     9      180.000000        2.804590         2
        17        12        11        18     9        0.000000        0.073419         3
        17        12        11        18     9      180.000000       -0.207160         4
        17        12        13        32     9        0.000000       -0.082156         1
        17        12        13        32     9      180.000000       13.516066         2
        17        12        13        32     9        0.000000       -0.718163         3
        17        12        13        32     9      180.000000        0.083254         4
        17        16        15        34     9        0.000000        1.046432         1
        17        16        15        34     9      180.000000       20.256143         2
        17        16        15        34     9        0.000000        0.235121         3
        17        16        15        34     9      180.000000       -0.453279         4
        18         7         6        19     9        0.000000       -0.455352         1
        18         7         6        19     9      180.000000        1.476770         2
        18         7         6        19     9        0.000000        0.087463         3
        18         7         6        19     9      180.000000        0.082650         4
        18         7         6        22     9        0.000000       -0.645007         1
        18         7         6        22     9      180.000000       -0.374447         2
        18         7         6        22     9        0.000000        0.117428         3
        18         7         6        22     9      180.000000        0.136619         4
        18         7         8        29     9        0.000000        0.034408         1
        18         7         8        29     9      180.000000       14.253554         2
        18         7         8        29     9        0.000000       -0.628435         3
        18         7         8        29     9      180.000000        0.068791         4
        18        11        10        31     9        0.000000       -0.140041         1
        18        11        10        31     9      180.000000       14.745315         2
        18        11        10        31     9        0.000000       -0.687992         3
        18        11        10        31     9      180.000000        0.036520         4
        19         6         5        28     9        0.000000        1.093009         1
        19         6         5        28     9      180.000000        0.895513         2
        19         6         5        28     9        0.000000        0.083132         3
        19         6         5        28     9      180.000000        0.034288         4
        19         6        22        23     9        0.000000       -0.690913         1
        19         6        22        23     9      180.000000        1.656976         2
        19         6        22        23     9        0.000000       -0.529450         3
        19         6        22        23     9      180.000000        0.437851         4
        19        20        21        40     9        0.000000       27.788818         1
        19        20        21        40     9      180.000000        2.343703         2
        19        20        21        40     9        0.000000       -0.080764         3
        19        20        21        40     9      180.000000        5.696217         4
        19        20        21        41     9        0.000000       27.788818         1
        19        20        21        41     9      180.000000        2.343703         2
        19        20        21        41     9        0.000000       -0.080764         3
        19        20        21        41     9      180.000000        5.696217         4
        19        21        20        38     9        0.000000       27.788818         1
        19        21        20        38     9      180.000000        2.343703         2
        19        21        20        38     9        0.000000       -0.080764         3
        19        21        20        38     9      180.000000        5.696217         4
        19        21        20        39     9        0.000000       27.788818         1
        19        21        20        39     9      180.000000        2.343703         2
        19        21        20        39     9        0.000000       -0.080764         3
        19        21        20        39     9      180.000000        5.696217         4
        20        19         6        22     9        0.000000       -0.543665         1
        20        19         6        22     9      180.000000       -0.010016         2
        20        19         6        22     9        0.000000        0.823229         3
        20        19         6        22     9      180.000000        0.023438         4
        20        19        21        40     9        0.000000       32.216265         1
        20        19        21        40     9      180.000000        2.449345         2
        20        19        21        40     9        0.000000        0.006300         3
        20        19        21        40     9      180.000000        6.330640         4
        20        19        21        41     9        0.000000       32.216265         1
        20        19        21        41     9      180.000000        2.449345         2
        20        19        21        41     9        0.000000        0.006300         3
        20        19        21        41     9      180.000000        6.330640         4
        20        21        19        37     9        0.000000       33.214309         1
        20        21        19        37     9      180.000000        4.388816         2
        20        21        19        37     9        0.000000       -0.341486         3
        20        21        19        37     9      180.000000        6.831461         4
        21        19         6        22     9        0.000000       -0.543665         1
        21        19         6        22     9      180.000000       -0.010016         2
        21        19         6        22     9        0.000000        0.823229         3
        21        19         6        22     9      180.000000        0.023438         4
        21        19        20        38     9        0.000000       32.216265         1
        21        19        20        38     9      180.000000        2.449345         2
        21        19        20        38     9        0.000000        0.006300         3
        21        19        20        38     9      180.000000        6.330640         4
        21        19        20        39     9        0.000000       32.216265         1
        21        19        20        39     9      180.000000        2.449345         2
        21        19        20        39     9        0.000000        0.006300         3
        21        19        20        39     9      180.000000        6.330640         4
        21        20        19        37     9        0.000000       33.214309         1
        21        20        19        37     9      180.000000        4.388816         2
        21        20        19        37     9        0.000000       -0.341486         3
        21        20        19        37     9      180.000000        6.831461         4
        22         2         1        24     9        0.000000       -0.076232         1
        22         2         1        24     9      180.000000       -0.069377         2
        22         2         1        24     9        0.000000       -0.309861         3
        22         2         1        24     9      180.000000        0.046067         4
        22         2         1        25     9        0.000000       -0.076232         1
        22         2         1        25     9      180.000000       -0.069377         2
        22         2         1        25     9        0.000000       -0.309861         3
        22         2         1        25     9      180.000000        0.046067         4
        22         2         1        26     9        0.000000       -0.076232         1
        22         2         1        26     9      180.000000       -0.069377         2
        22         2         1        26     9        0.000000       -0.309861         3
        22         2         1        26     9      180.000000        0.046067         4
        22         6         5        28     9        0.000000       -0.684302         1
        22         6         5        28     9      180.000000       -0.486763         2
        22         6         5        28     9        0.000000        0.139437         3
        22         6         5        28     9      180.000000        0.153062         4
        22         6        19        37     9        0.000000        0.320145         1
        22         6        19        37     9      180.000000        0.180785         2
        22         6        19        37     9        0.000000        0.829727         3
        22         6        19        37     9      180.000000        0.033271         4
        29         8         9        30     9        0.000000       -0.140623         1
        29         8         9        30     9      180.000000       11.913578         2
        29         8         9        30     9        0.000000       -0.716172         3
        29         8         9        30     9      180.000000        0.300768         4
        30         9        10        31     9        0.000000       -0.170501         1
        30         9        10        31     9      180.000000       11.978212         2
        30         9        10        31     9        0.000000       -0.721176         3
        30         9        10        31     9      180.000000        0.313437         4
        32        13        14        33     9        0.000000       -0.272571         1
        32        13        14        33     9      180.000000       12.194147         2
        32        13        14        33     9        0.000000       -0.656824         3
        32        13        14        33     9      180.000000        0.338153         4
        33        14        15        34     9        0.000000       -0.013624         1
        33        14        15        34     9      180.000000       11.247322         2
        33        14        15        34     9        0.000000       -0.654121         3
        33        14        15        34     9      180.000000        0.292997         4
        37        19        20        38     9        0.000000        1.157646         1
        37        19        20        38     9      180.000000       -0.567151         2
        37        19        20        38     9        0.000000        0.081132         3
        37        19        20        38     9      180.000000        1.453200         4
        37        19        20        39     9        0.000000        1.157646         1
        37        19        20        39     9      180.000000       -0.567151         2
        37        19        20        39     9        0.000000        0.081132         3
        37        19        20        39     9      180.000000        1.453200         4
        37        19        21        40     9        0.000000        1.157646         1
        37        19        21        40     9      180.000000       -0.567151         2
        37        19        21        40     9        0.000000        0.081132         3
        37        19        21        40     9      180.000000        1.453200         4
        37        19        21        41     9        0.000000        1.157646         1
        37        19        21        41     9      180.000000       -0.567151         2
        37        19        21        41     9        0.000000        0.081132         3
        37        19        21        41     9      180.000000        1.453200         4
        38        20        21        40     9        0.000000        1.448269         1
        38        20        21        40     9      180.000000        0.067816         2
        38        20        21        40     9        0.000000        0.081954         3
        38        20        21        40     9      180.000000        1.066065         4
        38        20        21        41     9        0.000000        1.448269         1
        38        20        21        41     9      180.000000        0.067816         2
        38        20        21        41     9        0.000000        0.081954         3
        38        20        21        41     9      180.000000        1.066065         4
        39        20        21        40     9        0.000000        1.448269         1
        39        20        21        40     9      180.000000        0.067816         2
        39        20        21        40     9        0.000000        0.081954         3
        39        20        21        40     9      180.000000        1.066065         4
        39        20        21        41     9        0.000000        1.448269         1
        39        20        21        41     9      180.000000        0.067816         2
        39        20        21        41     9        0.000000        0.081954         3
        39        20        21        41     9      180.000000        1.066065         4

[ dihedrals ] ; impropers
;       ai        aj        ak        al funct           phase               k        pn
         3         2         4         5     4      180.000000       10.969360         2
         3         4         5         2     4      180.000000       10.969360         2
         3         5         2         4     4      180.000000       10.969360         2
        15        14        16        34     4      180.000000        5.419038         2
        15        16        34        14     4      180.000000        5.419038         2
        15        34        14        16     4      180.000000        5.419038         2
        17        12        16        35     4      180.000000        2.653029         2
        17        16        35        12     4      180.000000        2.653029         2
        17        35        12        16     4      180.000000        2.653029         2
        22         2         6        23     4      180.000000       27.893333         2
        22         6        23         2     4      180.000000       27.893333         2
        22        23         2         6     4      180.000000       27.893333         2

[ pairs ]
;       ai        aj funct
         1         4     1
         1         5     1
         1         6     1
         1        23     1
         2         7     1
         2        19     1
         2        27     1
         2        28     1
         2        42     1
         3         7     1
         3        19     1
         3        23     1
         3        24     1
         3        25     1
         3        26     1
         4         6     1
         4        22     1
         4        28     1
         5         8     1
         5        18     1
         5        20     1
         5        21     1
         5        23     1
         5        27     1
         5        37     1
         5        42     1
         6         9     1
         6        11     1
         6        29     1
         6        36     1
         6        38     1
         6        39     1
         6        40     1
         6        41     1
         7        10     1
         7        12     1
         7        20     1
         7        21     1
         7        23     1
         7        28     1
         7        30     1
         7        37     1
         8        11     1
         8        19     1
         8        22     1
         8        31     1
         8        36     1
         9        12     1
         9        18     1
        10        13     1
        10        17     1
        10        29     1
        10        36     1
        11        14     1
        11        16     1
        11        30     1
        11        32     1
        11        35     1
        12        15     1
        12        31     1
        12        33     1
        12        36     1
        13        16     1
        13        18     1
        13        34     1
        13        35     1
        14        17     1
        15        32     1
        15        35     1
        16        33     1
        17        18     1
        17        32     1
        17        34     1
        18        19     1
        18        22     1
        18        29     1
        18        31     1
        19        23     1
        19        28     1
        20        22     1
        21        22     1
        22        24     1
        22        25     1
        22        26     1
        22        28     1
        22        37     1
        29        30     1
        30        31     1
        32        33     1
        33        34     1
        37        38     1
        37        39     1
        37        40     1
        37        41     1
        38        40     1
        38        41     1
        39        40     1
        39        41     1
