; ITP file created by ByteFF-ML, 2026-02-21 08:13:20.242614

[ atomtypes ]
;name           bonded.type        at.num        mass        charge   ptype           sigma         epsilon
 c0bf                                   6      0.0000       0.00000       A     3.39909e-01     4.52588e-01
 n1bf                                   7      0.0000       0.00000       A     3.18287e-01     7.03250e-01
 c2bf                                   6      0.0000       0.00000       A     3.31264e-01     4.10570e-01
 n3bf                                   7      0.0000       0.00000       A     3.36721e-01     4.77448e-01
 n4bf                                   7      0.0000       0.00000       A     3.26713e-01     6.48769e-01
 c5bf                                   6      0.0000       0.00000       A     3.39536e-01     4.48869e-01
 c6bf                                   6      0.0000       0.00000       A     3.31648e-01     4.15198e-01
 c7bf                                   6      0.0000       0.00000       A     3.31488e-01     4.13867e-01
 c8bf                                   6      0.0000       0.00000       A     3.31499e-01     4.13444e-01
 c9bf                                   6      0.0000       0.00000       A     3.31500e-01     4.12376e-01
 c10bf                                  6      0.0000       0.00000       A     3.31422e-01     4.12242e-01
 c11bf                                  6      0.0000       0.00000       A     3.31336e-01     4.14000e-01
 c12bf                                  6      0.0000       0.00000       A     3.31525e-01     4.12879e-01
 c13bf                                  6      0.0000       0.00000       A     3.31444e-01     4.12823e-01
 cl14bf                                17      0.0000       0.00000       A     3.46736e-01     1.10337e+00
 c15bf                                  6      0.0000       0.00000       A     3.31486e-01     4.12868e-01
 c16bf                                  6      0.0000       0.00000       A     3.31444e-01     4.12823e-01
 cl17bf                                17      0.0000       0.00000       A     3.46736e-01     1.10337e+00
 c18bf                                  6      0.0000       0.00000       A     3.31525e-01     4.12881e-01
 c19bf                                  6      0.0000       0.00000       A     3.31572e-01     4.15002e-01
 c20bf                                  6      0.0000       0.00000       A     3.39513e-01     4.48947e-01
 c21bf                                  6      0.0000       0.00000       A     3.39757e-01     4.48772e-01
 c22bf                                  6      0.0000       0.00000       A     3.39757e-01     4.48772e-01
 c23bf                                  6      0.0000       0.00000       A     3.31408e-01     4.15537e-01
 o24bf                                  8      0.0000       0.00000       A     3.04503e-01     6.16156e-01
 h25bf                                  1      0.0000       0.00000       A     2.42205e-01     8.61909e-02
 h26bf                                  1      0.0000       0.00000       A     2.42205e-01     8.61909e-02
 h27bf                                  1      0.0000       0.00000       A     2.42205e-01     8.61909e-02
 h28bf                                  1      0.0000       0.00000       A     1.10384e-01     3.90095e-02
 h29bf                                  1      0.0000       0.00000       A     1.10320e-01     4.03279e-02
 h30bf                                  1      0.0000       0.00000       A     2.62572e-01     6.77436e-02
 h31bf                                  1      0.0000       0.00000       A     2.62513e-01     6.74259e-02
 h32bf                                  1      0.0000       0.00000       A     2.62472e-01     6.74738e-02
 h33bf                                  1      0.0000       0.00000       A     2.62435e-01     6.74259e-02
 h34bf                                  1      0.0000       0.00000       A     2.62500e-01     6.75935e-02
 h35bf                                  1      0.0000       0.00000       A     2.62435e-01     6.74259e-02
 h36bf                                  1      0.0000       0.00000       A     2.62565e-01     6.76829e-02
 h37bf                                  1      0.0000       0.00000       A     2.59520e-01     8.50290e-02
 h38bf                                  1      0.0000       0.00000       A     2.60287e-01     8.57424e-02
 h39bf                                  1      0.0000       0.00000       A     2.60287e-01     8.57424e-02
 h40bf                                  1      0.0000       0.00000       A     2.60287e-01     8.57424e-02
 h41bf                                  1      0.0000       0.00000       A     2.60287e-01     8.57424e-02
 h42bf                                  1      0.0000       0.00000       A     1.10384e-01     3.90095e-02

[ moleculetype ]
;name             nrexcl
 CAT-17a               3

[ atoms ]
;       nr            type      resi   res      atom      cgnr      charge          mass ; qtot
         1            c0bf         1   UNL        c0         1     0.07261       12.0110 ; qtot    0.073
         2            n1bf         1   UNL        n1         2    -0.59326       14.0070 ; qtot   -0.521
         3            c2bf         1   UNL        c2         3     0.92602       12.0110 ; qtot    0.405
         4            n3bf         1   UNL        n3         4    -0.58697       14.0070 ; qtot   -0.182
         5            n4bf         1   UNL        n4         5    -0.61445       14.0070 ; qtot   -0.796
         6            c5bf         1   UNL        c5         6     0.12041       12.0110 ; qtot   -0.676
         7            c6bf         1   UNL        c6         7    -0.12418       12.0110 ; qtot   -0.800
         8            c7bf         1   UNL        c7         8    -0.07458       12.0110 ; qtot   -0.874
         9            c8bf         1   UNL        c8         9    -0.09806       12.0110 ; qtot   -0.972
        10            c9bf         1   UNL        c9        10    -0.09175       12.0110 ; qtot   -1.064
        11           c10bf         1   UNL       c10        11    -0.03542       12.0110 ; qtot   -1.100
        12           c11bf         1   UNL       c11        12    -0.00826       12.0110 ; qtot   -1.108
        13           c12bf         1   UNL       c12        13    -0.09634       12.0110 ; qtot   -1.204
        14           c13bf         1   UNL       c13        14     0.12794       12.0110 ; qtot   -1.076
        15          cl14bf         1   UNL      cl14        15    -0.19689       35.4530 ; qtot   -1.273
        16           c15bf         1   UNL       c15        16    -0.08693       12.0110 ; qtot   -1.360
        17           c16bf         1   UNL       c16        17     0.12794       12.0110 ; qtot   -1.232
        18          cl17bf         1   UNL      cl17        18    -0.19689       35.4530 ; qtot   -1.429
        19           c18bf         1   UNL       c18        19    -0.09634       12.0110 ; qtot   -1.525
        20           c19bf         1   UNL       c19        20    -0.05830       12.0110 ; qtot   -1.584
        21           c20bf         1   UNL       c20        21    -0.16654       12.0110 ; qtot   -1.750
        22           c21bf         1   UNL       c21        22    -0.10388       12.0110 ; qtot   -1.854
        23           c22bf         1   UNL       c22        23    -0.10388       12.0110 ; qtot   -1.958
        24           c23bf         1   UNL       c23        24     0.55423       12.0110 ; qtot   -1.404
        25           o24bf         1   UNL       o24        25    -0.39240       15.9990 ; qtot   -1.796
        26           h25bf         1   UNL       h25        26     0.08926        1.0080 ; qtot   -1.707
        27           h26bf         1   UNL       h26        27     0.08926        1.0080 ; qtot   -1.618
        28           h27bf         1   UNL       h27        28     0.08926        1.0080 ; qtot   -1.528
        29           h28bf         1   UNL       h28        29     0.38441        1.0080 ; qtot   -1.144
        30           h29bf         1   UNL       h29        30     0.41057        1.0080 ; qtot   -0.733
        31           h30bf         1   UNL       h30        31     0.12888        1.0080 ; qtot   -0.605
        32           h31bf         1   UNL       h31        32     0.11984        1.0080 ; qtot   -0.485
        33           h32bf         1   UNL       h32        33     0.11650        1.0080 ; qtot   -0.368
        34           h33bf         1   UNL       h33        34     0.13633        1.0080 ; qtot   -0.232
        35           h34bf         1   UNL       h34        35     0.15010        1.0080 ; qtot   -0.082
        36           h35bf         1   UNL       h35        36     0.13633        1.0080 ; qtot    0.055
        37           h36bf         1   UNL       h36        37     0.12988        1.0080 ; qtot    0.184
        38           h37bf         1   UNL       h37        38     0.10393        1.0080 ; qtot    0.288
        39           h38bf         1   UNL       h38        39     0.08180        1.0080 ; qtot    0.370
        40           h39bf         1   UNL       h39        40     0.08180        1.0080 ; qtot    0.452
        41           h40bf         1   UNL       h40        41     0.08180        1.0080 ; qtot    0.534
        42           h41bf         1   UNL       h41        42     0.08180        1.0080 ; qtot    0.616
        43           h42bf         1   UNL       h42        43     0.38442        1.0080 ; qtot    1.000

[ bonds ]
;       ai        aj funct               r               k
         1         2     1        0.146737   195108.827344
         1        26     1        0.109021   312351.867139
         1        27     1        0.109021   312351.867139
         1        28     1        0.109021   312351.867139
         2         3     1        0.135493   307944.238672
         2        24     1        0.142426   148868.502490
         3         4     1        0.133058   418634.532812
         3         5     1        0.133302   386902.376074
         4        29     1        0.101328   425154.871875
         4        43     1        0.101328   425154.871875
         5         6     1        0.148913   139630.299951
         5        30     1        0.101337   424655.417090
         6         7     1        0.152262   166830.385889
         6        21     1        0.152416   168644.784741
         6        24     1        0.154577   128147.845166
         7         8     1        0.140053   293210.348047
         7        20     1        0.139866   296665.340186
         8         9     1        0.139655   314826.183203
         8        31     1        0.108541   320854.320020
         9        10     1        0.139599   315772.665088
         9        32     1        0.108618   319848.540967
        10        11     1        0.140513   286503.639160
        10        33     1        0.108587   318592.753613
        11        12     1        0.148275   214270.903809
        11        20     1        0.140357   288296.242090
        12        13     1        0.140508   285459.043701
        12        19     1        0.140508   285459.069238
        13        14     1        0.139397   307298.226416
        13        34     1        0.108426   324604.955273
        14        15     1        0.175540   150167.805078
        14        16     1        0.139625   297054.704492
        16        17     1        0.139625   297054.730029
        16        35     1        0.108351   329434.763232
        17        18     1        0.175540   150167.830615
        17        19     1        0.139397   307298.226416
        19        36     1        0.108426   324604.955273
        20        37     1        0.108519   319755.407129
        21        22     1        0.151266   194349.289868
        21        23     1        0.151266   194349.289868
        21        38     1        0.108537   319742.587500
        22        23     1        0.151225   199579.966602
        22        39     1        0.108483   323654.872656
        22        40     1        0.108483   323654.872656
        23        41     1        0.108483   323654.872656
        23        42     1        0.108483   323654.872656
        24        25     1        0.120460   715141.721680

[ angles ]
;       ai        aj        ak funct           theta             cth
         1         2         3     1      126.596352      465.851780
         1         2        24     1      123.154587      533.875393
         2         1        26     1      109.233238      484.690090
         2         1        27     1      109.233238      484.690090
         2         1        28     1      109.233238      484.690090
         2         3         4     1      123.849709      628.052901
         2         3         5     1      111.327248      587.108806
         2        24         6     1      106.404617      167.360000
         2        24        25     1      124.414818      651.466280
         3         2        24     1      109.854813      830.456710
         3         4        29     1      121.317360      450.542985
         3         4        43     1      121.317360      450.542985
         3         5         6     1      111.918991      621.631084
         3         5        30     1      123.479996      428.649734
         4         3         5     1      125.425247      615.144594
         5         6         7     1      110.812096      603.925695
         5         6        21     1      110.691429      585.051728
         5         6        24     1      100.735207      334.101395
         6         5        30     1      121.067909      366.714263
         6         7         8     1      120.241966      490.003054
         6         7        20     1      120.035233      446.461389
         6        21        22     1      121.414719      410.920436
         6        21        23     1      121.414719      410.920404
         6        21        38     1      112.401169      424.131102
         6        24        25     1      127.712059      357.779307
         7         6        21     1      114.064102      533.010738
         7         6        24     1      111.595871      602.042333
         7         8         9     1      119.710999      677.588381
         7         8        31     1      120.439598      409.425302
         7        20        11     1      121.129135      663.216223
         7        20        37     1      119.797836      407.573351
         8         7        20     1      119.599869      686.650416
         8         9        10     1      120.365929      723.339964
         8         9        32     1      119.842361      433.129134
         9         8        31     1      119.735275      425.147000
         9        10        11     1      120.363564      700.364737
         9        10        33     1      119.763351      429.863704
        10         9        32     1      119.783707      437.203644
        10        11        12     1      120.782448      514.253285
        10        11        20     1      118.431641      665.329036
        11        10        33     1      119.842873      427.642838
        11        12        13     1      120.508408      482.941469
        11        12        19     1      120.508408      482.941469
        11        20        37     1      119.045433      419.544509
        12        11        20     1      120.779457      422.893510
        12        13        14     1      119.826515      659.679781
        12        13        34     1      120.556862      416.770956
        12        19        17     1      119.826515      659.679781
        12        19        36     1      120.556862      416.770988
        13        12        19     1      118.855835      608.269557
        13        14        15     1      119.183456      368.770479
        13        14        16     1      121.842880      645.582466
        14        13        34     1      119.639488      414.665453
        14        16        17     1      117.666504      618.395724
        14        16        35     1      121.183777      403.030427
        15        14        16     1      118.828140      364.043177
        16        17        18     1      118.828125      364.043241
        16        17        19     1      121.842880      645.582530
        17        16        35     1      121.183777      403.030427
        17        19        36     1      119.639488      414.665453
        18        17        19     1      119.183456      368.770479
        21         6        24     1      110.442825      625.809785
        21        22        23     1       59.965569      167.360000
        21        22        39     1      117.870682      377.010219
        21        22        40     1      117.870667      377.010219
        21        23        22     1       59.965576      167.360000
        21        23        41     1      117.870667      377.010219
        21        23        42     1      117.870667      377.010283
        22        21        23     1       60.013447      167.360000
        22        21        38     1      116.334984      367.698112
        22        23        41     1      118.112976      373.159862
        22        23        42     1      118.112976      373.159862
        23        21        38     1      116.334976      367.698112
        23        22        39     1      118.112976      373.159798
        23        22        40     1      118.112976      373.159798
        26         1        27     1      109.817101      349.345230
        26         1        28     1      109.817101      349.345230
        27         1        28     1      109.817101      349.345230
        29         4        43     1      117.449059      314.118256
        39        22        40     1      114.508240      310.792335
        41        23        42     1      114.508240      310.792335

[ dihedrals ] ; propers for gromacs 4.5 or higher, use funct 9
;       ai        aj        ak        al funct           phase               k        pn
         1         2         3         4     9        0.000000        1.681251         1
         1         2         3         4     9      180.000000        7.565632         2
         1         2         3         4     9        0.000000       -0.084196         3
         1         2         3         4     9      180.000000       -0.117755         4
         1         2         3         5     9        0.000000       -2.595472         1
         1         2         3         5     9      180.000000        5.687022         2
         1         2         3         5     9        0.000000       -0.270197         3
         1         2         3         5     9      180.000000        0.071015         4
         1         2        24         6     9        0.000000       -0.927348         1
         1         2        24         6     9      180.000000        5.632267         2
         1         2        24         6     9        0.000000        0.194516         3
         1         2        24         6     9      180.000000       -0.146003         4
         1         2        24        25     9        0.000000       -0.372579         1
         1         2        24        25     9      180.000000        9.241160         2
         1         2        24        25     9        0.000000       -0.366743         3
         1         2        24        25     9      180.000000        0.272898         4
         2         3         4        29     9        0.000000       -0.692757         1
         2         3         4        29     9      180.000000        6.266683         2
         2         3         4        29     9        0.000000        0.276010         3
         2         3         4        29     9      180.000000       -0.640727         4
         2         3         4        43     9        0.000000       -0.692758         1
         2         3         4        43     9      180.000000        6.266682         2
         2         3         4        43     9        0.000000        0.276009         3
         2         3         4        43     9      180.000000       -0.640727         4
         2         3         5         6     9        0.000000       -1.503540         1
         2         3         5         6     9      180.000000       22.318135         2
         2         3         5         6     9        0.000000       -1.492200         3
         2         3         5         6     9      180.000000       -2.587925         4
         2         3         5        30     9        0.000000       -0.423671         1
         2         3         5        30     9      180.000000        8.960263         2
         2         3         5        30     9        0.000000        0.006719         3
         2         3         5        30     9      180.000000       -0.794589         4
         2        24         6         5     9        0.000000        0.846264         1
         2        24         6         5     9      180.000000        7.674254         2
         2        24         6         5     9        0.000000       -0.129959         3
         2        24         6         5     9      180.000000       -0.374181         4
         2        24         6         7     9        0.000000        0.580672         1
         2        24         6         7     9      180.000000        0.779047         2
         2        24         6         7     9        0.000000        0.419813         3
         2        24         6         7     9      180.000000        0.785128         4
         2        24         6        21     9        0.000000       -1.663485         1
         2        24         6        21     9      180.000000        1.743965         2
         2        24         6        21     9        0.000000        0.204177         3
         2        24         6        21     9      180.000000        0.678616         4
         3         2         1        26     9        0.000000        0.017242         1
         3         2         1        26     9      180.000000        0.009277         2
         3         2         1        26     9        0.000000        0.186287         3
         3         2         1        26     9      180.000000       -0.015663         4
         3         2         1        27     9        0.000000        0.017242         1
         3         2         1        27     9      180.000000        0.009277         2
         3         2         1        27     9        0.000000        0.186287         3
         3         2         1        27     9      180.000000       -0.015663         4
         3         2         1        28     9        0.000000        0.017242         1
         3         2         1        28     9      180.000000        0.009277         2
         3         2         1        28     9        0.000000        0.186287         3
         3         2         1        28     9      180.000000       -0.015663         4
         3         2        24         6     9        0.000000       -3.199270         1
         3         2        24         6     9      180.000000       11.134570         2
         3         2        24         6     9        0.000000       -1.424547         3
         3         2        24         6     9      180.000000       -0.354715         4
         3         2        24        25     9        0.000000        1.863270         1
         3         2        24        25     9      180.000000       16.900331         2
         3         2        24        25     9        0.000000       -0.487083         3
         3         2        24        25     9      180.000000       -0.863534         4
         3         5         6         7     9        0.000000        0.012918         1
         3         5         6         7     9      180.000000        0.605239         2
         3         5         6         7     9        0.000000        0.247695         3
         3         5         6         7     9      180.000000        0.225342         4
         3         5         6        21     9        0.000000       -3.192218         1
         3         5         6        21     9      180.000000        1.786951         2
         3         5         6        21     9        0.000000        0.247241         3
         3         5         6        21     9      180.000000        0.162776         4
         3         5         6        24     9        0.000000       -2.410528         1
         3         5         6        24     9      180.000000        7.090548         2
         3         5         6        24     9        0.000000       -0.379500         3
         3         5         6        24     9      180.000000       -1.884004         4
         4         3         2        24     9        0.000000        1.215505         1
         4         3         2        24     9      180.000000       13.015313         2
         4         3         2        24     9        0.000000       -0.233095         3
         4         3         2        24     9      180.000000       -0.792368         4
         4         3         5         6     9        0.000000        2.225656         1
         4         3         5         6     9      180.000000       17.710702         2
         4         3         5         6     9        0.000000        0.846330         3
         4         3         5         6     9      180.000000       -1.899073         4
         4         3         5        30     9        0.000000       -0.804130         1
         4         3         5        30     9      180.000000        8.071696         2
         4         3         5        30     9        0.000000        0.396356         3
         4         3         5        30     9      180.000000       -0.383884         4
         5         3         2        24     9        0.000000       -1.530473         1
         5         3         2        24     9      180.000000       14.535260         2
         5         3         2        24     9        0.000000       -2.812513         3
         5         3         2        24     9      180.000000       -1.257193         4
         5         3         4        29     9        0.000000       -1.912809         1
         5         3         4        29     9      180.000000        6.401111         2
         5         3         4        29     9        0.000000       -0.119590         3
         5         3         4        29     9      180.000000       -0.499018         4
         5         3         4        43     9        0.000000       -1.912809         1
         5         3         4        43     9      180.000000        6.401112         2
         5         3         4        43     9        0.000000       -0.119590         3
         5         3         4        43     9      180.000000       -0.499018         4
         5         6         7         8     9        0.000000       -0.231461         1
         5         6         7         8     9      180.000000        1.367796         2
         5         6         7         8     9        0.000000        0.169382         3
         5         6         7         8     9      180.000000        0.152540         4
         5         6         7        20     9        0.000000       -0.056756         1
         5         6         7        20     9      180.000000        1.418398         2
         5         6         7        20     9        0.000000        0.098485         3
         5         6         7        20     9      180.000000        0.136047         4
         5         6        21        22     9        0.000000        0.135020         1
         5         6        21        22     9      180.000000       -0.526363         2
         5         6        21        22     9        0.000000        1.071462         3
         5         6        21        22     9      180.000000        0.128480         4
         5         6        21        23     9        0.000000        0.135020         1
         5         6        21        23     9      180.000000       -0.526364         2
         5         6        21        23     9        0.000000        1.071462         3
         5         6        21        23     9      180.000000        0.128479         4
         5         6        21        38     9        0.000000       -0.825185         1
         5         6        21        38     9      180.000000       -0.748652         2
         5         6        21        38     9        0.000000        1.187461         3
         5         6        21        38     9      180.000000       -0.113455         4
         5         6        24        25     9        0.000000        6.954345         1
         5         6        24        25     9      180.000000        5.214521         2
         5         6        24        25     9        0.000000        0.085529         3
         5         6        24        25     9      180.000000        0.381754         4
         6         7         8         9     9        0.000000        0.175751         1
         6         7         8         9     9      180.000000       14.708349         2
         6         7         8         9     9        0.000000       -0.202608         3
         6         7         8         9     9      180.000000       -0.099356         4
         6         7         8        31     9        0.000000       -0.024047         1
         6         7         8        31     9      180.000000       12.655440         2
         6         7         8        31     9        0.000000       -0.307111         3
         6         7         8        31     9      180.000000        0.222241         4
         6         7        20        11     9        0.000000        0.163518         1
         6         7        20        11     9      180.000000       14.614792         2
         6         7        20        11     9        0.000000       -0.166857         3
         6         7        20        11     9      180.000000       -0.175508         4
         6         7        20        37     9        0.000000       -0.034876         1
         6         7        20        37     9      180.000000       12.757778         2
         6         7        20        37     9        0.000000       -0.307815         3
         6         7        20        37     9      180.000000        0.222392         4
         6        21        22        23     9        0.000000       36.756380         1
         6        21        22        23     9      180.000000       -1.256455         2
         6        21        22        23     9        0.000000        1.578942         3
         6        21        22        23     9      180.000000       11.424949         4
         6        21        22        39     9        0.000000        0.702705         1
         6        21        22        39     9      180.000000       -1.580479         2
         6        21        22        39     9        0.000000        0.019185         3
         6        21        22        39     9      180.000000        1.344229         4
         6        21        22        40     9        0.000000        0.702705         1
         6        21        22        40     9      180.000000       -1.580479         2
         6        21        22        40     9        0.000000        0.019185         3
         6        21        22        40     9      180.000000        1.344229         4
         6        21        23        22     9        0.000000       36.756376         1
         6        21        23        22     9      180.000000       -1.256457         2
         6        21        23        22     9        0.000000        1.578942         3
         6        21        23        22     9      180.000000       11.424950         4
         6        21        23        41     9        0.000000        0.702704         1
         6        21        23        41     9      180.000000       -1.580479         2
         6        21        23        41     9        0.000000        0.019185         3
         6        21        23        41     9      180.000000        1.344229         4
         6        21        23        42     9        0.000000        0.702704         1
         6        21        23        42     9      180.000000       -1.580479         2
         6        21        23        42     9        0.000000        0.019185         3
         6        21        23        42     9      180.000000        1.344229         4
         7         6         5        30     9        0.000000        1.059554         1
         7         6         5        30     9      180.000000        0.527404         2
         7         6         5        30     9        0.000000        0.152015         3
         7         6         5        30     9      180.000000       -0.043896         4
         7         6        21        22     9        0.000000       -0.047011         1
         7         6        21        22     9      180.000000        0.459078         2
         7         6        21        22     9        0.000000        1.284585         3
         7         6        21        22     9      180.000000        0.092191         4
         7         6        21        23     9        0.000000       -0.047012         1
         7         6        21        23     9      180.000000        0.459078         2
         7         6        21        23     9        0.000000        1.284585         3
         7         6        21        23     9      180.000000        0.092190         4
         7         6        21        38     9        0.000000        0.063877         1
         7         6        21        38     9      180.000000        0.865171         2
         7         6        21        38     9        0.000000        1.585218         3
         7         6        21        38     9      180.000000        0.061512         4
         7         6        24        25     9        0.000000       -0.842678         1
         7         6        24        25     9      180.000000        1.204222         2
         7         6        24        25     9        0.000000       -0.336938         3
         7         6        24        25     9      180.000000        0.433070         4
         7         8         9        10     9        0.000000        0.105815         1
         7         8         9        10     9      180.000000       18.622486         2
         7         8         9        10     9        0.000000       -1.513132         3
         7         8         9        10     9      180.000000       -0.455386         4
         7         8         9        32     9        0.000000        0.071512         1
         7         8         9        32     9      180.000000       15.083015         2
         7         8         9        32     9        0.000000       -0.584435         3
         7         8         9        32     9      180.000000        0.085537         4
         7        20        11        10     9        0.000000       -0.081277         1
         7        20        11        10     9      180.000000       18.784984         2
         7        20        11        10     9        0.000000       -1.580530         3
         7        20        11        10     9      180.000000       -0.497306         4
         7        20        11        12     9        0.000000        0.267043         1
         7        20        11        12     9      180.000000       16.675544         2
         7        20        11        12     9        0.000000       -0.181351         3
         7        20        11        12     9      180.000000       -0.388281         4
         8         7         6        21     9        0.000000       -0.241508         1
         8         7         6        21     9      180.000000        1.377441         2
         8         7         6        21     9        0.000000        0.140578         3
         8         7         6        21     9      180.000000        0.090995         4
         8         7         6        24     9        0.000000       -0.307022         1
         8         7         6        24     9      180.000000       -0.481876         2
         8         7         6        24     9        0.000000        0.144676         3
         8         7         6        24     9      180.000000        0.132200         4
         8         7        20        11     9        0.000000       -0.071980         1
         8         7        20        11     9      180.000000       19.035200         2
         8         7        20        11     9        0.000000       -1.472432         3
         8         7        20        11     9      180.000000       -0.448551         4
         8         7        20        37     9        0.000000        0.037797         1
         8         7        20        37     9      180.000000       14.301393         2
         8         7        20        37     9        0.000000       -0.689651         3
         8         7        20        37     9      180.000000        0.079549         4
         8         9        10        11     9        0.000000       -0.031182         1
         8         9        10        11     9      180.000000       18.818242         2
         8         9        10        11     9        0.000000       -1.494657         3
         8         9        10        11     9      180.000000       -0.332507         4
         8         9        10        33     9        0.000000        0.077041         1
         8         9        10        33     9      180.000000       14.542691         2
         8         9        10        33     9        0.000000       -0.739760         3
         8         9        10        33     9      180.000000        0.175657         4
         9         8         7        20     9        0.000000       -0.136766         1
         9         8         7        20     9      180.000000       19.105920         2
         9         8         7        20     9        0.000000       -1.443428         3
         9         8         7        20     9      180.000000       -0.462852         4
         9        10        11        12     9        0.000000        0.204464         1
         9        10        11        12     9      180.000000       16.034609         2
         9        10        11        12     9        0.000000       -0.207658         3
         9        10        11        12     9      180.000000       -0.230800         4
         9        10        11        20     9        0.000000       -0.194611         1
         9        10        11        20     9      180.000000       18.671485         2
         9        10        11        20     9        0.000000       -1.533649         3
         9        10        11        20     9      180.000000       -0.330949         4
        10         9         8        31     9        0.000000        0.061639         1
        10         9         8        31     9      180.000000       14.652143         2
        10         9         8        31     9        0.000000       -0.636815         3
        10         9         8        31     9      180.000000        0.081112         4
        10        11        12        13     9        0.000000        0.004690         1
        10        11        12        13     9      180.000000        3.339432         2
        10        11        12        13     9        0.000000        0.033132         3
        10        11        12        13     9      180.000000       -0.009943         4
        10        11        12        19     9        0.000000        0.004689         1
        10        11        12        19     9      180.000000        3.339432         2
        10        11        12        19     9        0.000000        0.033132         3
        10        11        12        19     9      180.000000       -0.009943         4
        10        11        20        37     9        0.000000       -0.119258         1
        10        11        20        37     9      180.000000       14.624477         2
        10        11        20        37     9        0.000000       -0.614672         3
        10        11        20        37     9      180.000000       -0.010613         4
        11        10         9        32     9        0.000000       -0.058605         1
        11        10         9        32     9      180.000000       14.770204         2
        11        10         9        32     9        0.000000       -0.619939         3
        11        10         9        32     9      180.000000        0.107026         4
        11        12        13        14     9        0.000000        0.212045         1
        11        12        13        14     9      180.000000       16.737177         2
        11        12        13        14     9        0.000000       -0.187758         3
        11        12        13        14     9      180.000000       -0.446478         4
        11        12        13        34     9        0.000000       -0.084424         1
        11        12        13        34     9      180.000000       13.304931         2
        11        12        13        34     9        0.000000       -0.215806         3
        11        12        13        34     9      180.000000        0.189314         4
        11        12        19        17     9        0.000000        0.212046         1
        11        12        19        17     9      180.000000       16.737177         2
        11        12        19        17     9        0.000000       -0.187758         3
        11        12        19        17     9      180.000000       -0.446478         4
        11        12        19        36     9        0.000000       -0.084425         1
        11        12        19        36     9      180.000000       13.304932         2
        11        12        19        36     9        0.000000       -0.215805         3
        11        12        19        36     9      180.000000        0.189314         4
        12        11        10        33     9        0.000000       -0.126353         1
        12        11        10        33     9      180.000000       13.344100         2
        12        11        10        33     9        0.000000       -0.248283         3
        12        11        10        33     9      180.000000        0.174839         4
        12        11        20        37     9        0.000000       -0.123570         1
        12        11        20        37     9      180.000000       13.344478         2
        12        11        20        37     9        0.000000       -0.172391         3
        12        11        20        37     9      180.000000        0.152047         4
        12        13        14        15     9        0.000000        0.382092         1
        12        13        14        15     9      180.000000       19.198021         2
        12        13        14        15     9        0.000000        0.414558         3
        12        13        14        15     9      180.000000       -0.719973         4
        12        13        14        16     9        0.000000        0.038101         1
        12        13        14        16     9      180.000000       17.776990         2
        12        13        14        16     9        0.000000       -1.231988         3
        12        13        14        16     9      180.000000       -0.386007         4
        12        19        17        16     9        0.000000        0.038101         1
        12        19        17        16     9      180.000000       17.776988         2
        12        19        17        16     9        0.000000       -1.231987         3
        12        19        17        16     9      180.000000       -0.386007         4
        12        19        17        18     9        0.000000        0.382093         1
        12        19        17        18     9      180.000000       19.198021         2
        12        19        17        18     9        0.000000        0.414558         3
        12        19        17        18     9      180.000000       -0.719972         4
        13        12        11        20     9        0.000000        0.026948         1
        13        12        11        20     9      180.000000        3.434010         2
        13        12        11        20     9        0.000000        0.031658         3
        13        12        11        20     9      180.000000       -0.020323         4
        13        12        19        17     9        0.000000       -0.285925         1
        13        12        19        17     9      180.000000       18.281330         2
        13        12        19        17     9        0.000000       -1.596804         3
        13        12        19        17     9      180.000000       -0.391856         4
        13        12        19        36     9        0.000000       -0.097540         1
        13        12        19        36     9      180.000000       14.070583         2
        13        12        19        36     9        0.000000       -0.658244         3
        13        12        19        36     9      180.000000        0.066444         4
        13        14        16        17     9        0.000000       -0.078796         1
        13        14        16        17     9      180.000000       17.633805         2
        13        14        16        17     9        0.000000       -1.219858         3
        13        14        16        17     9      180.000000       -0.454685         4
        13        14        16        35     9        0.000000       -0.021854         1
        13        14        16        35     9      180.000000       13.345710         2
        13        14        16        35     9        0.000000       -0.569812         3
        13        14        16        35     9      180.000000        0.122006         4
        14        13        12        19     9        0.000000       -0.285926         1
        14        13        12        19     9      180.000000       18.281330         2
        14        13        12        19     9        0.000000       -1.596804         3
        14        13        12        19     9      180.000000       -0.391856         4
        14        16        17        18     9        0.000000        0.396524         1
        14        16        17        18     9      180.000000       18.591782         2
        14        16        17        18     9        0.000000        0.418226         3
        14        16        17        18     9      180.000000       -0.620015         4
        14        16        17        19     9        0.000000       -0.078796         1
        14        16        17        19     9      180.000000       17.633807         2
        14        16        17        19     9        0.000000       -1.219858         3
        14        16        17        19     9      180.000000       -0.454686         4
        15        14        13        34     9        0.000000        0.144339         1
        15        14        13        34     9      180.000000       13.928971         2
        15        14        13        34     9        0.000000       -0.114875         3
        15        14        13        34     9      180.000000        0.195022         4
        15        14        16        17     9        0.000000        0.396523         1
        15        14        16        17     9      180.000000       18.591786         2
        15        14        16        17     9        0.000000        0.418226         3
        15        14        16        17     9      180.000000       -0.620015         4
        15        14        16        35     9        0.000000        0.181916         1
        15        14        16        35     9      180.000000       13.205461         2
        15        14        16        35     9        0.000000       -0.172229         3
        15        14        16        35     9      180.000000        0.260920         4
        16        14        13        34     9        0.000000        0.013714         1
        16        14        13        34     9      180.000000       13.871276         2
        16        14        13        34     9        0.000000       -0.618395         3
        16        14        13        34     9      180.000000        0.095170         4
        16        17        19        36     9        0.000000        0.013714         1
        16        17        19        36     9      180.000000       13.871276         2
        16        17        19        36     9        0.000000       -0.618395         3
        16        17        19        36     9      180.000000        0.095170         4
        18        17        16        35     9        0.000000        0.181916         1
        18        17        16        35     9      180.000000       13.205460         2
        18        17        16        35     9        0.000000       -0.172229         3
        18        17        16        35     9      180.000000        0.260920         4
        18        17        19        36     9        0.000000        0.144339         1
        18        17        19        36     9      180.000000       13.928971         2
        18        17        19        36     9        0.000000       -0.114875         3
        18        17        19        36     9      180.000000        0.195021         4
        19        12        11        20     9        0.000000        0.026948         1
        19        12        11        20     9      180.000000        3.434010         2
        19        12        11        20     9        0.000000        0.031659         3
        19        12        11        20     9      180.000000       -0.020323         4
        19        12        13        34     9        0.000000       -0.097540         1
        19        12        13        34     9      180.000000       14.070582         2
        19        12        13        34     9        0.000000       -0.658245         3
        19        12        13        34     9      180.000000        0.066444         4
        19        17        16        35     9        0.000000       -0.021853         1
        19        17        16        35     9      180.000000       13.345710         2
        19        17        16        35     9        0.000000       -0.569812         3
        19        17        16        35     9      180.000000        0.122006         4
        20         7         6        21     9        0.000000       -0.450503         1
        20         7         6        21     9      180.000000        1.485275         2
        20         7         6        21     9        0.000000        0.090539         3
        20         7         6        21     9      180.000000        0.079473         4
        20         7         6        24     9        0.000000       -0.668758         1
        20         7         6        24     9      180.000000       -0.377242         2
        20         7         6        24     9        0.000000        0.116164         3
        20         7         6        24     9      180.000000        0.137197         4
        20         7         8        31     9        0.000000        0.039360         1
        20         7         8        31     9      180.000000       14.284254         2
        20         7         8        31     9        0.000000       -0.629773         3
        20         7         8        31     9      180.000000        0.064285         4
        20        11        10        33     9        0.000000       -0.120620         1
        20        11        10        33     9      180.000000       14.585215         2
        20        11        10        33     9        0.000000       -0.700799         3
        20        11        10        33     9      180.000000        0.056756         4
        21         6         5        30     9        0.000000        1.093009         1
        21         6         5        30     9      180.000000        0.895513         2
        21         6         5        30     9        0.000000        0.083132         3
        21         6         5        30     9      180.000000        0.034288         4
        21         6        24        25     9        0.000000       -0.690912         1
        21         6        24        25     9      180.000000        1.656976         2
        21         6        24        25     9        0.000000       -0.529450         3
        21         6        24        25     9      180.000000        0.437851         4
        21        22        23        41     9        0.000000       27.788822         1
        21        22        23        41     9      180.000000        2.343706         2
        21        22        23        41     9        0.000000       -0.080764         3
        21        22        23        41     9      180.000000        5.696217         4
        21        22        23        42     9        0.000000       27.788822         1
        21        22        23        42     9      180.000000        2.343706         2
        21        22        23        42     9        0.000000       -0.080764         3
        21        22        23        42     9      180.000000        5.696217         4
        21        23        22        39     9        0.000000       27.788822         1
        21        23        22        39     9      180.000000        2.343706         2
        21        23        22        39     9        0.000000       -0.080764         3
        21        23        22        39     9      180.000000        5.696217         4
        21        23        22        40     9        0.000000       27.788822         1
        21        23        22        40     9      180.000000        2.343706         2
        21        23        22        40     9        0.000000       -0.080764         3
        21        23        22        40     9      180.000000        5.696217         4
        22        21         6        24     9        0.000000       -0.543666         1
        22        21         6        24     9      180.000000       -0.010016         2
        22        21         6        24     9        0.000000        0.823229         3
        22        21         6        24     9      180.000000        0.023438         4
        22        21        23        41     9        0.000000       32.216265         1
        22        21        23        41     9      180.000000        2.449344         2
        22        21        23        41     9        0.000000        0.006300         3
        22        21        23        41     9      180.000000        6.330639         4
        22        21        23        42     9        0.000000       32.216265         1
        22        21        23        42     9      180.000000        2.449344         2
        22        21        23        42     9        0.000000        0.006300         3
        22        21        23        42     9      180.000000        6.330639         4
        22        23        21        38     9        0.000000       33.214309         1
        22        23        21        38     9      180.000000        4.388813         2
        22        23        21        38     9        0.000000       -0.341485         3
        22        23        21        38     9      180.000000        6.831462         4
        23        21         6        24     9        0.000000       -0.543665         1
        23        21         6        24     9      180.000000       -0.010015         2
        23        21         6        24     9        0.000000        0.823229         3
        23        21         6        24     9      180.000000        0.023438         4
        23        21        22        39     9        0.000000       32.216261         1
        23        21        22        39     9      180.000000        2.449344         2
        23        21        22        39     9        0.000000        0.006300         3
        23        21        22        39     9      180.000000        6.330640         4
        23        21        22        40     9        0.000000       32.216261         1
        23        21        22        40     9      180.000000        2.449344         2
        23        21        22        40     9        0.000000        0.006300         3
        23        21        22        40     9      180.000000        6.330640         4
        23        22        21        38     9        0.000000       33.214303         1
        23        22        21        38     9      180.000000        4.388813         2
        23        22        21        38     9        0.000000       -0.341485         3
        23        22        21        38     9      180.000000        6.831462         4
        24         2         1        26     9        0.000000       -0.076232         1
        24         2         1        26     9      180.000000       -0.069377         2
        24         2         1        26     9        0.000000       -0.309860         3
        24         2         1        26     9      180.000000        0.046067         4
        24         2         1        27     9        0.000000       -0.076232         1
        24         2         1        27     9      180.000000       -0.069377         2
        24         2         1        27     9        0.000000       -0.309860         3
        24         2         1        27     9      180.000000        0.046067         4
        24         2         1        28     9        0.000000       -0.076232         1
        24         2         1        28     9      180.000000       -0.069377         2
        24         2         1        28     9        0.000000       -0.309860         3
        24         2         1        28     9      180.000000        0.046067         4
        24         6         5        30     9        0.000000       -0.684303         1
        24         6         5        30     9      180.000000       -0.486763         2
        24         6         5        30     9        0.000000        0.139437         3
        24         6         5        30     9      180.000000        0.153062         4
        24         6        21        38     9        0.000000        0.320144         1
        24         6        21        38     9      180.000000        0.180787         2
        24         6        21        38     9        0.000000        0.829727         3
        24         6        21        38     9      180.000000        0.033272         4
        31         8         9        32     9        0.000000       -0.140623         1
        31         8         9        32     9      180.000000       11.913578         2
        31         8         9        32     9        0.000000       -0.716172         3
        31         8         9        32     9      180.000000        0.300768         4
        32         9        10        33     9        0.000000       -0.170005         1
        32         9        10        33     9      180.000000       11.935084         2
        32         9        10        33     9        0.000000       -0.734376         3
        32         9        10        33     9      180.000000        0.326222         4
        38        21        22        39     9        0.000000        1.157646         1
        38        21        22        39     9      180.000000       -0.567151         2
        38        21        22        39     9        0.000000        0.081132         3
        38        21        22        39     9      180.000000        1.453200         4
        38        21        22        40     9        0.000000        1.157646         1
        38        21        22        40     9      180.000000       -0.567151         2
        38        21        22        40     9        0.000000        0.081132         3
        38        21        22        40     9      180.000000        1.453200         4
        38        21        23        41     9        0.000000        1.157648         1
        38        21        23        41     9      180.000000       -0.567151         2
        38        21        23        41     9        0.000000        0.081132         3
        38        21        23        41     9      180.000000        1.453199         4
        38        21        23        42     9        0.000000        1.157648         1
        38        21        23        42     9      180.000000       -0.567151         2
        38        21        23        42     9        0.000000        0.081132         3
        38        21        23        42     9      180.000000        1.453199         4
        39        22        23        41     9        0.000000        1.448269         1
        39        22        23        41     9      180.000000        0.067815         2
        39        22        23        41     9        0.000000        0.081955         3
        39        22        23        41     9      180.000000        1.066065         4
        39        22        23        42     9        0.000000        1.448269         1
        39        22        23        42     9      180.000000        0.067815         2
        39        22        23        42     9        0.000000        0.081955         3
        39        22        23        42     9      180.000000        1.066065         4
        40        22        23        41     9        0.000000        1.448269         1
        40        22        23        41     9      180.000000        0.067815         2
        40        22        23        41     9        0.000000        0.081955         3
        40        22        23        41     9      180.000000        1.066065         4
        40        22        23        42     9        0.000000        1.448269         1
        40        22        23        42     9      180.000000        0.067815         2
        40        22        23        42     9        0.000000        0.081955         3
        40        22        23        42     9      180.000000        1.066065         4

[ dihedrals ] ; impropers
;       ai        aj        ak        al funct           phase               k        pn
         3         2         4         5     4      180.000000       10.969360         2
         3         4         5         2     4      180.000000       10.969360         2
         3         5         2         4     4      180.000000       10.969360         2
        24         2         6        25     4      180.000000       27.893333         2
        24         6        25         2     4      180.000000       27.893333         2
        24        25         2         6     4      180.000000       27.893333         2

[ pairs ]
;       ai        aj funct
         1         4     1
         1         5     1
         1         6     1
         1        25     1
         2         7     1
         2        21     1
         2        29     1
         2        30     1
         2        43     1
         3         7     1
         3        21     1
         3        25     1
         3        26     1
         3        27     1
         3        28     1
         4         6     1
         4        24     1
         4        30     1
         5         8     1
         5        20     1
         5        22     1
         5        23     1
         5        25     1
         5        29     1
         5        38     1
         5        43     1
         6         9     1
         6        11     1
         6        31     1
         6        37     1
         6        39     1
         6        40     1
         6        41     1
         6        42     1
         7        10     1
         7        12     1
         7        22     1
         7        23     1
         7        25     1
         7        30     1
         7        32     1
         7        38     1
         8        11     1
         8        21     1
         8        24     1
         8        33     1
         8        37     1
         9        12     1
         9        20     1
        10        13     1
        10        19     1
        10        31     1
        10        37     1
        11        14     1
        11        17     1
        11        32     1
        11        34     1
        11        36     1
        12        15     1
        12        16     1
        12        18     1
        12        33     1
        12        37     1
        13        17     1
        13        20     1
        13        35     1
        13        36     1
        14        18     1
        14        19     1
        15        17     1
        15        34     1
        15        35     1
        16        34     1
        16        36     1
        18        35     1
        18        36     1
        19        20     1
        19        34     1
        19        35     1
        20        21     1
        20        24     1
        20        31     1
        20        33     1
        21        25     1
        21        30     1
        22        24     1
        23        24     1
        24        26     1
        24        27     1
        24        28     1
        24        30     1
        24        38     1
        31        32     1
        32        33     1
        38        39     1
        38        40     1
        38        41     1
        38        42     1
        39        41     1
        39        42     1
        40        41     1
        40        42     1
