; ITP file created by ByteFF-ML, 2026-02-21 08:13:55.752335

[ atomtypes ]
;name           bonded.type        at.num        mass        charge   ptype           sigma         epsilon
 c0bf                                   6      0.0000       0.00000       A     3.39898e-01     4.52593e-01
 n1bf                                   7      0.0000       0.00000       A     3.18321e-01     7.03038e-01
 c2bf                                   6      0.0000       0.00000       A     3.31223e-01     4.10380e-01
 n3bf                                   7      0.0000       0.00000       A     3.36731e-01     4.77019e-01
 n4bf                                   7      0.0000       0.00000       A     3.26871e-01     6.40659e-01
 c5bf                                   6      0.0000       0.00000       A     3.39379e-01     4.44341e-01
 c6bf                                   6      0.0000       0.00000       A     3.31546e-01     4.15024e-01
 c7bf                                   6      0.0000       0.00000       A     3.31529e-01     4.14153e-01
 c8bf                                   6      0.0000       0.00000       A     3.31506e-01     4.13240e-01
 c9bf                                   6      0.0000       0.00000       A     3.31502e-01     4.12817e-01
 c10bf                                  6      0.0000       0.00000       A     3.31506e-01     4.13240e-01
 c11bf                                  6      0.0000       0.00000       A     3.31529e-01     4.14153e-01
 c12bf                                  6      0.0000       0.00000       A     3.31605e-01     4.15323e-01
 c13bf                                  6      0.0000       0.00000       A     3.31511e-01     4.14036e-01
 c14bf                                  6      0.0000       0.00000       A     3.31491e-01     4.13364e-01
 c15bf                                  6      0.0000       0.00000       A     3.31504e-01     4.12557e-01
 c16bf                                  6      0.0000       0.00000       A     3.31432e-01     4.13115e-01
 c17bf                                  6      0.0000       0.00000       A     3.31188e-01     4.11569e-01
 c18bf                                  6      0.0000       0.00000       A     3.31492e-01     4.13371e-01
 n19bf                                  7      0.0000       0.00000       A     3.38295e-01     3.92598e-01
 c20bf                                  6      0.0000       0.00000       A     3.31445e-01     4.13543e-01
 c21bf                                  6      0.0000       0.00000       A     3.31522e-01     4.14174e-01
 c22bf                                  6      0.0000       0.00000       A     3.48301e-01     6.69010e-01
 n23bf                                  7      0.0000       0.00000       A     3.27394e-01     4.58168e-01
 c24bf                                  6      0.0000       0.00000       A     3.31385e-01     4.12996e-01
 c25bf                                  6      0.0000       0.00000       A     3.31605e-01     4.14865e-01
 c26bf                                  6      0.0000       0.00000       A     3.31448e-01     4.16660e-01
 o27bf                                  8      0.0000       0.00000       A     3.04556e-01     6.16025e-01
 h28bf                                  1      0.0000       0.00000       A     2.42205e-01     8.61909e-02
 h29bf                                  1      0.0000       0.00000       A     2.42205e-01     8.61909e-02
 h30bf                                  1      0.0000       0.00000       A     2.42205e-01     8.61909e-02
 h31bf                                  1      0.0000       0.00000       A     1.10384e-01     3.90095e-02
 h32bf                                  1      0.0000       0.00000       A     1.10491e-01     4.02241e-02
 h33bf                                  1      0.0000       0.00000       A     2.62565e-01     6.77340e-02
 h34bf                                  1      0.0000       0.00000       A     2.62462e-01     6.72839e-02
 h35bf                                  1      0.0000       0.00000       A     2.62457e-01     6.73477e-02
 h36bf                                  1      0.0000       0.00000       A     2.62462e-01     6.72839e-02
 h37bf                                  1      0.0000       0.00000       A     2.62565e-01     6.77340e-02
 h38bf                                  1      0.0000       0.00000       A     2.62565e-01     6.77340e-02
 h39bf                                  1      0.0000       0.00000       A     2.62513e-01     6.74259e-02
 h40bf                                  1      0.0000       0.00000       A     2.62472e-01     6.74738e-02
 h41bf                                  1      0.0000       0.00000       A     2.53647e-01     6.70142e-02
 h42bf                                  1      0.0000       0.00000       A     2.53539e-01     6.73414e-02
 h43bf                                  1      0.0000       0.00000       A     2.62259e-01     6.76302e-02
 h44bf                                  1      0.0000       0.00000       A     2.62568e-01     6.76574e-02
 h45bf                                  1      0.0000       0.00000       A     1.10384e-01     3.90095e-02

[ moleculetype ]
;name             nrexcl
 CAT-4n                3

[ atoms ]
;       nr            type      resi   res      atom      cgnr      charge          mass ; qtot
         1            c0bf         1   UNL        c0         1     0.07241       12.0110 ; qtot    0.072
         2            n1bf         1   UNL        n1         2    -0.59233       14.0070 ; qtot   -0.520
         3            c2bf         1   UNL        c2         3     0.93511       12.0110 ; qtot    0.415
         4            n3bf         1   UNL        n3         4    -0.58908       14.0070 ; qtot   -0.174
         5            n4bf         1   UNL        n4         5    -0.61420       14.0070 ; qtot   -0.788
         6            c5bf         1   UNL        c5         6     0.14233       12.0110 ; qtot   -0.646
         7            c6bf         1   UNL        c6         7    -0.13622       12.0110 ; qtot   -0.782
         8            c7bf         1   UNL        c7         8    -0.07841       12.0110 ; qtot   -0.860
         9            c8bf         1   UNL        c8         9    -0.10257       12.0110 ; qtot   -0.963
        10            c9bf         1   UNL        c9        10    -0.09285       12.0110 ; qtot   -1.056
        11           c10bf         1   UNL       c10        11    -0.10257       12.0110 ; qtot   -1.158
        12           c11bf         1   UNL       c11        12    -0.07841       12.0110 ; qtot   -1.237
        13           c12bf         1   UNL       c12        13    -0.12856       12.0110 ; qtot   -1.365
        14           c13bf         1   UNL       c13        14    -0.07243       12.0110 ; qtot   -1.438
        15           c14bf         1   UNL       c14        15    -0.09570       12.0110 ; qtot   -1.533
        16           c15bf         1   UNL       c15        16    -0.09239       12.0110 ; qtot   -1.626
        17           c16bf         1   UNL       c16        17    -0.03013       12.0110 ; qtot   -1.656
        18           c17bf         1   UNL       c17        18    -0.08142       12.0110 ; qtot   -1.737
        19           c18bf         1   UNL       c18        19     0.36014       12.0110 ; qtot   -1.377
        20           n19bf         1   UNL       n19        20    -0.65497       14.0070 ; qtot   -2.032
        21           c20bf         1   UNL       c20        21     0.37290       12.0110 ; qtot   -1.659
        22           c21bf         1   UNL       c21        22    -0.06275       12.0110 ; qtot   -1.722
        23           c22bf         1   UNL       c22        23     0.31485       12.0110 ; qtot   -1.407
        24           n23bf         1   UNL       n23        24    -0.43294       14.0070 ; qtot   -1.840
        25           c24bf         1   UNL       c24        25    -0.03658       12.0110 ; qtot   -1.877
        26           c25bf         1   UNL       c25        26    -0.05726       12.0110 ; qtot   -1.934
        27           c26bf         1   UNL       c26        27     0.55441       12.0110 ; qtot   -1.380
        28           o27bf         1   UNL       o27        28    -0.38753       15.9990 ; qtot   -1.767
        29           h28bf         1   UNL       h28        29     0.08958        1.0080 ; qtot   -1.678
        30           h29bf         1   UNL       h29        30     0.08958        1.0080 ; qtot   -1.588
        31           h30bf         1   UNL       h30        31     0.08958        1.0080 ; qtot   -1.498
        32           h31bf         1   UNL       h31        32     0.38417        1.0080 ; qtot   -1.114
        33           h32bf         1   UNL       h32        33     0.41349        1.0080 ; qtot   -0.701
        34           h33bf         1   UNL       h33        34     0.12674        1.0080 ; qtot   -0.574
        35           h34bf         1   UNL       h34        35     0.11912        1.0080 ; qtot   -0.455
        36           h35bf         1   UNL       h35        36     0.11390        1.0080 ; qtot   -0.341
        37           h36bf         1   UNL       h36        37     0.11912        1.0080 ; qtot   -0.222
        38           h37bf         1   UNL       h37        38     0.12674        1.0080 ; qtot   -0.095
        39           h38bf         1   UNL       h38        39     0.12975        1.0080 ; qtot    0.035
        40           h39bf         1   UNL       h39        40     0.12026        1.0080 ; qtot    0.155
        41           h40bf         1   UNL       h40        41     0.11718        1.0080 ; qtot    0.272
        42           h41bf         1   UNL       h41        42     0.03044        1.0080 ; qtot    0.302
        43           h42bf         1   UNL       h42        43     0.04114        1.0080 ; qtot    0.344
        44           h43bf         1   UNL       h43        44     0.14018        1.0080 ; qtot    0.484
        45           h44bf         1   UNL       h44        45     0.13203        1.0080 ; qtot    0.616
        46           h45bf         1   UNL       h45        46     0.38415        1.0080 ; qtot    1.000

[ bonds ]
;       ai        aj funct               r               k
         1         2     1        0.146770   194545.402100
         1        29     1        0.109019   312430.214990
         1        30     1        0.109019   312430.214990
         1        31     1        0.109019   312430.214990
         2         3     1        0.135571   306128.141602
         2        27     1        0.142427   149007.730811
         3         4     1        0.133057   418437.999219
         3         5     1        0.133367   385280.003516
         4        32     1        0.101331   425032.293750
         4        46     1        0.101331   425032.293750
         5         6     1        0.148849   140457.127710
         5        33     1        0.101328   425133.088721
         6         7     1        0.152361   165060.408838
         6        13     1        0.152371   165267.834009
         6        27     1        0.154797   124308.621680
         7         8     1        0.140161   291585.804834
         7        12     1        0.140161   291585.804834
         8         9     1        0.139713   314164.414551
         8        34     1        0.108563   319867.744873
         9        10     1        0.139901   306343.725879
         9        35     1        0.108609   320432.753418
        10        11     1        0.139901   306343.725879
        10        36     1        0.108623   320033.506250
        11        12     1        0.139713   314164.414551
        11        37     1        0.108609   320432.753418
        12        38     1        0.108563   319867.744873
        13        14     1        0.140096   292907.452393
        13        26     1        0.139914   296225.157031
        14        15     1        0.139662   313971.788135
        14        39     1        0.108548   320727.094141
        15        16     1        0.139606   315567.397803
        15        40     1        0.108615   320003.653369
        16        17     1        0.140522   286201.407471
        16        41     1        0.108593   318502.760840
        17        18     1        0.148023   216459.229785
        17        26     1        0.140360   287946.077246
        18        19     1        0.140956   267973.989209
        18        25     1        0.140064   292791.386230
        19        20     1        0.133745   325324.361182
        19        42     1        0.108774   316681.249902
        20        21     1        0.133484   325832.192139
        21        22     1        0.140751   274762.544531
        21        43     1        0.108683   322196.397266
        22        23     1        0.143509   274008.484766
        22        25     1        0.140162   302275.715430
        23        24     1        0.116506  1108252.730859
        25        44     1        0.108498   324345.549316
        26        45     1        0.108527   319750.938135
        27        28     1        0.120340   720922.965723

[ angles ]
;       ai        aj        ak funct           theta             cth
         1         2         3     1      126.578964      468.028818
         1         2        27     1      123.180504      536.340905
         2         1        29     1      109.237282      484.028775
         2         1        30     1      109.237282      484.028775
         2         1        31     1      109.237282      484.028775
         2         3         4     1      123.852600      626.812755
         2         3         5     1      111.298294      587.422338
         2        27         6     1      106.249046      167.360000
         2        27        28     1      124.686508      645.429180
         3         2        27     1      109.844299      842.413950
         3         4        32     1      121.296143      450.934533
         3         4        46     1      121.296143      450.934469
         3         5         6     1      111.971664      628.767046
         3         5        33     1      123.585732      427.054526
         4         3         5     1      125.357384      617.615756
         5         6         7     1      110.788513      594.970597
         5         6        13     1      110.780807      597.256870
         5         6        27     1      100.257896      341.583832
         6         5        33     1      120.754250      368.882364
         6         7         8     1      120.068604      477.433625
         6         7        12     1      120.068604      477.433625
         6        13        14     1      120.064842      485.172997
         6        13        26     1      119.865097      444.101058
         6        27        28     1      127.886978      362.102102
         7         6        13     1      114.689331      487.977387
         7         6        27     1      111.267578      601.092991
         7         8         9     1      120.195145      680.403464
         7         8        34     1      120.290939      398.410317
         7        12        11     1      120.195145      680.403464
         7        12        38     1      120.290939      398.410317
         8         7        12     1      119.478966      686.490936
         8         9        10     1      120.116295      721.653685
         8         9        35     1      119.730301      425.611775
         9         8        34     1      119.529823      427.934567
         9        10        11     1      119.660950      700.021263
         9        10        36     1      120.189026      428.146429
        10         9        35     1      120.129761      427.908647
        10        11        12     1      120.116295      721.653685
        10        11        37     1      120.129761      427.908679
        11        10        36     1      120.189026      428.146429
        11        12        38     1      119.529823      427.934599
        12        11        37     1      119.730301      425.611775
        13         6        27     1      111.206482      602.067296
        13        14        15     1      119.673203      676.925437
        13        14        39     1      120.424927      402.069114
        13        26        17     1      121.028709      662.283864
        13        26        45     1      119.814171      402.319410
        14        13        26     1      119.653709      693.953263
        14        15        16     1      120.355080      726.096822
        14        15        40     1      119.830856      430.852405
        15        14        39     1      119.808311      423.195678
        15        16        17     1      120.332474      701.902773
        15        16        41     1      119.740479      429.528562
        16        15        40     1      119.798172      434.972658
        16        17        18     1      120.701340      508.314726
        16        17        26     1      118.503578      669.387777
        17        16        41     1      119.879288      428.417506
        17        18        19     1      121.428345      544.053368
        17        18        25     1      121.750931      451.596199
        17        26        45     1      119.209511      416.784395
        18        17        26     1      120.725632      425.524279
        18        19        20     1      124.514023      749.353979
        18        19        42     1      119.837708      404.851382
        18        25        22     1      119.364456      727.825876
        18        25        44     1      120.972916      413.562090
        19        18        25     1      116.691185      690.541824
        19        20        21     1      117.946999      703.336299
        20        19        42     1      115.872253      331.613826
        20        21        22     1      122.680763      671.219490
        20        21        43     1      117.175064      338.374967
        21        22        23     1      120.212158      513.266595
        21        22        25     1      118.733360      753.398993
        22        21        43     1      120.253525      399.871103
        22        23        24     1      179.592606      167.360000
        22        25        44     1      119.911133      419.069200
        23        22        25     1      120.832275      455.765643
        29         1        30     1      109.825012      349.354041
        29         1        31     1      109.825012      349.354041
        30         1        31     1      109.825012      349.354041
        32         4        46     1      117.458168      314.236876

[ dihedrals ] ; propers for gromacs 4.5 or higher, use funct 9
;       ai        aj        ak        al funct           phase               k        pn
         1         2         3         4     9        0.000000        1.750031         1
         1         2         3         4     9      180.000000        7.527046         2
         1         2         3         4     9        0.000000       -0.053234         3
         1         2         3         4     9      180.000000       -0.107064         4
         1         2         3         5     9        0.000000       -2.795685         1
         1         2         3         5     9      180.000000        5.725591         2
         1         2         3         5     9        0.000000       -0.188592         3
         1         2         3         5     9      180.000000        0.060183         4
         1         2        27         6     9        0.000000       -0.538857         1
         1         2        27         6     9      180.000000        5.575424         2
         1         2        27         6     9        0.000000        0.152376         3
         1         2        27         6     9      180.000000       -0.161733         4
         1         2        27        28     9        0.000000       -0.456215         1
         1         2        27        28     9      180.000000        9.244379         2
         1         2        27        28     9        0.000000       -0.319752         3
         1         2        27        28     9      180.000000        0.297308         4
         2         3         4        32     9        0.000000       -0.736374         1
         2         3         4        32     9      180.000000        6.300565         2
         2         3         4        32     9        0.000000        0.313029         3
         2         3         4        32     9      180.000000       -0.635641         4
         2         3         4        46     9        0.000000       -0.736375         1
         2         3         4        46     9      180.000000        6.300565         2
         2         3         4        46     9        0.000000        0.313029         3
         2         3         4        46     9      180.000000       -0.635641         4
         2         3         5         6     9        0.000000       -1.518929         1
         2         3         5         6     9      180.000000       21.988461         2
         2         3         5         6     9        0.000000       -1.439307         3
         2         3         5         6     9      180.000000       -2.630186         4
         2         3         5        33     9        0.000000       -0.583773         1
         2         3         5        33     9      180.000000        8.920949         2
         2         3         5        33     9        0.000000        0.096791         3
         2         3         5        33     9      180.000000       -0.874819         4
         2        27         6         5     9        0.000000        0.368981         1
         2        27         6         5     9      180.000000        8.187297         2
         2        27         6         5     9        0.000000       -0.153603         3
         2        27         6         5     9      180.000000       -0.438700         4
         2        27         6         7     9        0.000000        0.495500         1
         2        27         6         7     9      180.000000        0.481891         2
         2        27         6         7     9        0.000000        0.316943         3
         2        27         6         7     9      180.000000        0.846984         4
         2        27         6        13     9        0.000000        0.551085         1
         2        27         6        13     9      180.000000        0.477492         2
         2        27         6        13     9        0.000000        0.339127         3
         2        27         6        13     9      180.000000        0.837442         4
         3         2         1        29     9        0.000000        0.021130         1
         3         2         1        29     9      180.000000        0.000117         2
         3         2         1        29     9        0.000000        0.183870         3
         3         2         1        29     9      180.000000       -0.015824         4
         3         2         1        30     9        0.000000        0.021130         1
         3         2         1        30     9      180.000000        0.000117         2
         3         2         1        30     9        0.000000        0.183870         3
         3         2         1        30     9      180.000000       -0.015824         4
         3         2         1        31     9        0.000000        0.021130         1
         3         2         1        31     9      180.000000        0.000117         2
         3         2         1        31     9        0.000000        0.183870         3
         3         2         1        31     9      180.000000       -0.015824         4
         3         2        27         6     9        0.000000       -2.825559         1
         3         2        27         6     9      180.000000       10.925332         2
         3         2        27         6     9        0.000000       -1.470465         3
         3         2        27         6     9      180.000000       -0.300432         4
         3         2        27        28     9        0.000000        1.928666         1
         3         2        27        28     9      180.000000       16.805427         2
         3         2        27        28     9        0.000000       -0.505018         3
         3         2        27        28     9      180.000000       -0.817874         4
         3         5         6         7     9        0.000000        0.573703         1
         3         5         6         7     9      180.000000        0.602635         2
         3         5         6         7     9        0.000000        0.267748         3
         3         5         6         7     9      180.000000        0.243559         4
         3         5         6        13     9        0.000000        0.399115         1
         3         5         6        13     9      180.000000        0.607968         2
         3         5         6        13     9        0.000000        0.264496         3
         3         5         6        13     9      180.000000        0.238957         4
         3         5         6        27     9        0.000000       -2.323484         1
         3         5         6        27     9      180.000000        6.770824         2
         3         5         6        27     9        0.000000       -0.429740         3
         3         5         6        27     9      180.000000       -1.708534         4
         4         3         2        27     9        0.000000        1.384865         1
         4         3         2        27     9      180.000000       13.000208         2
         4         3         2        27     9        0.000000       -0.230674         3
         4         3         2        27     9      180.000000       -0.772286         4
         4         3         5         6     9        0.000000        1.917672         1
         4         3         5         6     9      180.000000       17.273762         2
         4         3         5         6     9        0.000000        0.746894         3
         4         3         5         6     9      180.000000       -1.864771         4
         4         3         5        33     9        0.000000       -0.563534         1
         4         3         5        33     9      180.000000        8.078403         2
         4         3         5        33     9        0.000000        0.471206         3
         4         3         5        33     9      180.000000       -0.472618         4
         5         3         2        27     9        0.000000       -1.562446         1
         5         3         2        27     9      180.000000       14.809948         2
         5         3         2        27     9        0.000000       -2.756051         3
         5         3         2        27     9      180.000000       -1.320170         4
         5         3         4        32     9        0.000000       -1.578259         1
         5         3         4        32     9      180.000000        6.607875         2
         5         3         4        32     9        0.000000        0.015933         3
         5         3         4        32     9      180.000000       -0.506731         4
         5         3         4        46     9        0.000000       -1.578259         1
         5         3         4        46     9      180.000000        6.607875         2
         5         3         4        46     9        0.000000        0.015933         3
         5         3         4        46     9      180.000000       -0.506730         4
         5         6         7         8     9        0.000000       -0.346790         1
         5         6         7         8     9      180.000000        1.241990         2
         5         6         7         8     9        0.000000        0.147219         3
         5         6         7         8     9      180.000000        0.192257         4
         5         6         7        12     9        0.000000       -0.346790         1
         5         6         7        12     9      180.000000        1.241990         2
         5         6         7        12     9        0.000000        0.147219         3
         5         6         7        12     9      180.000000        0.192257         4
         5         6        13        14     9        0.000000       -0.376656         1
         5         6        13        14     9      180.000000        1.344968         2
         5         6        13        14     9        0.000000        0.145598         3
         5         6        13        14     9      180.000000        0.196839         4
         5         6        13        26     9        0.000000       -0.220403         1
         5         6        13        26     9      180.000000        1.410753         2
         5         6        13        26     9        0.000000        0.072361         3
         5         6        13        26     9      180.000000        0.197601         4
         5         6        27        28     9        0.000000        6.446726         1
         5         6        27        28     9      180.000000        5.117103         2
         5         6        27        28     9        0.000000        0.133933         3
         5         6        27        28     9      180.000000        0.360037         4
         6         7         8         9     9        0.000000        0.162833         1
         6         7         8         9     9      180.000000       14.950996         2
         6         7         8         9     9        0.000000       -0.196275         3
         6         7         8         9     9      180.000000       -0.190856         4
         6         7         8        34     9        0.000000       -0.059051         1
         6         7         8        34     9      180.000000       12.509450         2
         6         7         8        34     9        0.000000       -0.335274         3
         6         7         8        34     9      180.000000        0.203866         4
         6         7        12        11     9        0.000000        0.162833         1
         6         7        12        11     9      180.000000       14.950996         2
         6         7        12        11     9        0.000000       -0.196275         3
         6         7        12        11     9      180.000000       -0.190856         4
         6         7        12        38     9        0.000000       -0.059052         1
         6         7        12        38     9      180.000000       12.509450         2
         6         7        12        38     9        0.000000       -0.335274         3
         6         7        12        38     9      180.000000        0.203866         4
         6        13        14        15     9        0.000000        0.183559         1
         6        13        14        15     9      180.000000       14.986925         2
         6        13        14        15     9        0.000000       -0.202030         3
         6        13        14        15     9      180.000000       -0.199513         4
         6        13        14        39     9        0.000000       -0.012755         1
         6        13        14        39     9      180.000000       12.563720         2
         6        13        14        39     9        0.000000       -0.313825         3
         6        13        14        39     9      180.000000        0.185545         4
         6        13        26        17     9        0.000000        0.170173         1
         6        13        26        17     9      180.000000       14.692150         2
         6        13        26        17     9        0.000000       -0.125971         3
         6        13        26        17     9      180.000000       -0.238382         4
         6        13        26        45     9        0.000000        0.006861         1
         6        13        26        45     9      180.000000       12.783081         2
         6        13        26        45     9        0.000000       -0.285267         3
         6        13        26        45     9      180.000000        0.174962         4
         7         6         5        33     9        0.000000        1.059913         1
         7         6         5        33     9      180.000000        0.593355         2
         7         6         5        33     9        0.000000        0.126829         3
         7         6         5        33     9      180.000000       -0.016391         4
         7         6        13        14     9        0.000000        0.058894         1
         7         6        13        14     9      180.000000        0.377344         2
         7         6        13        14     9        0.000000        0.198239         3
         7         6        13        14     9      180.000000        0.078960         4
         7         6        13        26     9        0.000000       -0.115507         1
         7         6        13        26     9      180.000000        0.448479         2
         7         6        13        26     9        0.000000        0.141691         3
         7         6        13        26     9      180.000000        0.057427         4
         7         6        27        28     9        0.000000       -1.152817         1
         7         6        27        28     9      180.000000        1.072200         2
         7         6        27        28     9        0.000000       -0.348037         3
         7         6        27        28     9      180.000000        0.393151         4
         7         8         9        10     9        0.000000        0.112457         1
         7         8         9        10     9      180.000000       19.076179         2
         7         8         9        10     9        0.000000       -1.528293         3
         7         8         9        10     9      180.000000       -0.501395         4
         7         8         9        35     9        0.000000        0.036242         1
         7         8         9        35     9      180.000000       15.148456         2
         7         8         9        35     9        0.000000       -0.607416         3
         7         8         9        35     9      180.000000        0.081088         4
         7        12        11        10     9        0.000000        0.112457         1
         7        12        11        10     9      180.000000       19.076179         2
         7        12        11        10     9        0.000000       -1.528293         3
         7        12        11        10     9      180.000000       -0.501395         4
         7        12        11        37     9        0.000000        0.036242         1
         7        12        11        37     9      180.000000       15.148456         2
         7        12        11        37     9        0.000000       -0.607416         3
         7        12        11        37     9      180.000000        0.081089         4
         8         7         6        13     9        0.000000        0.000123         1
         8         7         6        13     9      180.000000        0.357554         2
         8         7         6        13     9        0.000000        0.204899         3
         8         7         6        13     9      180.000000        0.092106         4
         8         7         6        27     9        0.000000       -0.388488         1
         8         7         6        27     9      180.000000       -0.678832         2
         8         7         6        27     9        0.000000        0.177104         3
         8         7         6        27     9      180.000000        0.152568         4
         8         7        12        11     9        0.000000       -0.125590         1
         8         7        12        11     9      180.000000       19.197404         2
         8         7        12        11     9        0.000000       -1.469704         3
         8         7        12        11     9      180.000000       -0.532165         4
         8         7        12        38     9        0.000000        0.001779         1
         8         7        12        38     9      180.000000       14.559357         2
         8         7        12        38     9        0.000000       -0.693507         3
         8         7        12        38     9      180.000000        0.005835         4
         8         9        10        11     9        0.000000       -0.072947         1
         8         9        10        11     9      180.000000       18.710862         2
         8         9        10        11     9        0.000000       -1.638188         3
         8         9        10        11     9      180.000000       -0.393764         4
         8         9        10        36     9        0.000000        0.032122         1
         8         9        10        36     9      180.000000       14.422667         2
         8         9        10        36     9        0.000000       -0.779016         3
         8         9        10        36     9      180.000000        0.114208         4
         9         8         7        12     9        0.000000       -0.125590         1
         9         8         7        12     9      180.000000       19.197404         2
         9         8         7        12     9        0.000000       -1.469704         3
         9         8         7        12     9      180.000000       -0.532165         4
         9        10        11        12     9        0.000000       -0.072947         1
         9        10        11        12     9      180.000000       18.710862         2
         9        10        11        12     9        0.000000       -1.638188         3
         9        10        11        12     9      180.000000       -0.393764         4
         9        10        11        37     9        0.000000        0.017562         1
         9        10        11        37     9      180.000000       14.269724         2
         9        10        11        37     9        0.000000       -0.769057         3
         9        10        11        37     9      180.000000        0.155538         4
        10         9         8        34     9        0.000000        0.047715         1
        10         9         8        34     9      180.000000       14.992779         2
        10         9         8        34     9        0.000000       -0.684086         3
        10         9         8        34     9      180.000000        0.101542         4
        10        11        12        38     9        0.000000        0.047714         1
        10        11        12        38     9      180.000000       14.992778         2
        10        11        12        38     9        0.000000       -0.684086         3
        10        11        12        38     9      180.000000        0.101543         4
        11        10         9        35     9        0.000000        0.017563         1
        11        10         9        35     9      180.000000       14.269722         2
        11        10         9        35     9        0.000000       -0.769057         3
        11        10         9        35     9      180.000000        0.155538         4
        12         7         6        13     9        0.000000        0.000123         1
        12         7         6        13     9      180.000000        0.357554         2
        12         7         6        13     9        0.000000        0.204899         3
        12         7         6        13     9      180.000000        0.092106         4
        12         7         6        27     9        0.000000       -0.388488         1
        12         7         6        27     9      180.000000       -0.678832         2
        12         7         6        27     9        0.000000        0.177104         3
        12         7         6        27     9      180.000000        0.152568         4
        12         7         8        34     9        0.000000        0.001779         1
        12         7         8        34     9      180.000000       14.559357         2
        12         7         8        34     9        0.000000       -0.693508         3
        12         7         8        34     9      180.000000        0.005835         4
        12        11        10        36     9        0.000000        0.032122         1
        12        11        10        36     9      180.000000       14.422667         2
        12        11        10        36     9        0.000000       -0.779016         3
        12        11        10        36     9      180.000000        0.114208         4
        13         6         5        33     9        0.000000        0.897844         1
        13         6         5        33     9      180.000000        0.607272         2
        13         6         5        33     9        0.000000        0.137571         3
        13         6         5        33     9      180.000000       -0.018752         4
        13         6        27        28     9        0.000000       -0.949888         1
        13         6        27        28     9      180.000000        1.119253         2
        13         6        27        28     9        0.000000       -0.353354         3
        13         6        27        28     9      180.000000        0.390425         4
        13        14        15        16     9        0.000000        0.135064         1
        13        14        15        16     9      180.000000       18.637575         2
        13        14        15        16     9        0.000000       -1.470402         3
        13        14        15        16     9      180.000000       -0.480554         4
        13        14        15        40     9        0.000000        0.070387         1
        13        14        15        40     9      180.000000       15.112305         2
        13        14        15        40     9        0.000000       -0.539903         3
        13        14        15        40     9      180.000000        0.068146         4
        13        26        17        16     9        0.000000       -0.063738         1
        13        26        17        16     9      180.000000       18.732535         2
        13        26        17        16     9        0.000000       -1.590550         3
        13        26        17        16     9      180.000000       -0.485783         4
        13        26        17        18     9        0.000000        0.345663         1
        13        26        17        18     9      180.000000       17.084833         2
        13        26        17        18     9        0.000000       -0.147056         3
        13        26        17        18     9      180.000000       -0.460558         4
        14        13         6        27     9        0.000000       -0.327945         1
        14        13         6        27     9      180.000000       -0.606490         2
        14        13         6        27     9        0.000000        0.177664         3
        14        13         6        27     9      180.000000        0.152836         4
        14        13        26        17     9        0.000000       -0.081781         1
        14        13        26        17     9      180.000000       19.180576         2
        14        13        26        17     9        0.000000       -1.493462         3
        14        13        26        17     9      180.000000       -0.503937         4
        14        13        26        45     9        0.000000        0.031291         1
        14        13        26        45     9      180.000000       14.628395         2
        14        13        26        45     9        0.000000       -0.716807         3
        14        13        26        45     9      180.000000        0.015248         4
        14        15        16        17     9        0.000000       -0.032907         1
        14        15        16        17     9      180.000000       18.806880         2
        14        15        16        17     9        0.000000       -1.523624         3
        14        15        16        17     9      180.000000       -0.342996         4
        14        15        16        41     9        0.000000        0.068545         1
        14        15        16        41     9      180.000000       14.643716         2
        14        15        16        41     9        0.000000       -0.732303         3
        14        15        16        41     9      180.000000        0.157835         4
        15        14        13        26     9        0.000000       -0.165046         1
        15        14        13        26     9      180.000000       19.256325         2
        15        14        13        26     9        0.000000       -1.457951         3
        15        14        13        26     9      180.000000       -0.494685         4
        15        16        17        18     9        0.000000        0.232125         1
        15        16        17        18     9      180.000000       16.255410         2
        15        16        17        18     9        0.000000       -0.256210         3
        15        16        17        18     9      180.000000       -0.266324         4
        15        16        17        26     9        0.000000       -0.219738         1
        15        16        17        26     9      180.000000       18.860197         2
        15        16        17        26     9        0.000000       -1.556301         3
        15        16        17        26     9      180.000000       -0.353931         4
        16        15        14        39     9        0.000000        0.062335         1
        16        15        14        39     9      180.000000       14.607759         2
        16        15        14        39     9        0.000000       -0.649707         3
        16        15        14        39     9      180.000000        0.076628         4
        16        17        18        19     9        0.000000       -0.022068         1
        16        17        18        19     9      180.000000        2.679771         2
        16        17        18        19     9        0.000000        0.102312         3
        16        17        18        19     9      180.000000       -0.203169         4
        16        17        18        25     9        0.000000        0.056792         1
        16        17        18        25     9      180.000000        3.056488         2
        16        17        18        25     9        0.000000        0.085977         3
        16        17        18        25     9      180.000000       -0.154221         4
        16        17        26        45     9        0.000000       -0.146802         1
        16        17        26        45     9      180.000000       14.791950         2
        16        17        26        45     9        0.000000       -0.644347         3
        16        17        26        45     9      180.000000       -0.037980         4
        17        16        15        40     9        0.000000       -0.053492         1
        17        16        15        40     9      180.000000       14.841303         2
        17        16        15        40     9        0.000000       -0.603795         3
        17        16        15        40     9      180.000000        0.086011         4
        17        18        19        20     9        0.000000        0.386228         1
        17        18        19        20     9      180.000000       15.051823         2
        17        18        19        20     9        0.000000        0.104108         3
        17        18        19        20     9      180.000000       -0.482446         4
        17        18        19        42     9        0.000000        0.121747         1
        17        18        19        42     9      180.000000       12.852336         2
        17        18        19        42     9        0.000000       -0.148215         3
        17        18        19        42     9      180.000000        0.148912         4
        17        18        25        22     9        0.000000        0.226409         1
        17        18        25        22     9      180.000000       16.523477         2
        17        18        25        22     9        0.000000        0.026579         3
        17        18        25        22     9      180.000000       -0.375555         4
        17        18        25        44     9        0.000000       -0.085564         1
        17        18        25        44     9      180.000000       13.079915         2
        17        18        25        44     9        0.000000       -0.164617         3
        17        18        25        44     9      180.000000        0.203512         4
        18        17        16        41     9        0.000000       -0.158322         1
        18        17        16        41     9      180.000000       13.436914         2
        18        17        16        41     9        0.000000       -0.306736         3
        18        17        16        41     9      180.000000        0.149628         4
        18        17        26        45     9        0.000000       -0.158615         1
        18        17        26        45     9      180.000000       13.396062         2
        18        17        26        45     9        0.000000       -0.187743         3
        18        17        26        45     9      180.000000        0.152518         4
        18        19        20        21     9        0.000000        0.227989         1
        18        19        20        21     9      180.000000       21.772409         2
        18        19        20        21     9        0.000000       -0.619354         3
        18        19        20        21     9      180.000000       -0.109783         4
        18        25        22        21     9        0.000000       -0.041095         1
        18        25        22        21     9      180.000000       17.854693         2
        18        25        22        21     9        0.000000       -1.722201         3
        18        25        22        21     9      180.000000       -0.447258         4
        18        25        22        23     9        0.000000        0.086991         1
        18        25        22        23     9      180.000000       16.913942         2
        18        25        22        23     9        0.000000       -0.005469         3
        18        25        22        23     9      180.000000       -0.447362         4
        19        18        17        26     9        0.000000        0.025178         1
        19        18        17        26     9      180.000000        2.837029         2
        19        18        17        26     9        0.000000        0.130152         3
        19        18        17        26     9      180.000000       -0.209036         4
        19        18        25        22     9        0.000000       -0.302433         1
        19        18        25        22     9      180.000000       17.941771         2
        19        18        25        22     9        0.000000       -1.533007         3
        19        18        25        22     9      180.000000       -0.434449         4
        19        18        25        44     9        0.000000       -0.115914         1
        19        18        25        44     9      180.000000       13.199328         2
        19        18        25        44     9        0.000000       -0.671060         3
        19        18        25        44     9      180.000000        0.085504         4
        19        20        21        22     9        0.000000       -0.022818         1
        19        20        21        22     9      180.000000       22.557723         2
        19        20        21        22     9        0.000000       -0.398362         3
        19        20        21        22     9      180.000000       -0.270743         4
        19        20        21        43     9        0.000000        0.729045         1
        19        20        21        43     9      180.000000       20.219868         2
        19        20        21        43     9        0.000000        0.309426         3
        19        20        21        43     9      180.000000       -0.486932         4
        20        19        18        25     9        0.000000       -0.029136         1
        20        19        18        25     9      180.000000       15.908606         2
        20        19        18        25     9        0.000000       -0.515523         3
        20        19        18        25     9      180.000000       -0.290427         4
        20        21        22        23     9        0.000000       -0.248393         1
        20        21        22        23     9      180.000000       15.735937         2
        20        21        22        23     9        0.000000       -0.028131         3
        20        21        22        23     9      180.000000       -0.630912         4
        20        21        22        25     9        0.000000       -0.107612         1
        20        21        22        25     9      180.000000       15.934531         2
        20        21        22        25     9        0.000000       -0.769278         3
        20        21        22        25     9      180.000000       -0.305127         4
        21        20        19        42     9        0.000000        1.169306         1
        21        20        19        42     9      180.000000       20.381640         2
        21        20        19        42     9        0.000000        0.127008         3
        21        20        19        42     9      180.000000       -0.217882         4
        21        22        23        24     9        0.000000        0.000000         1
        21        22        23        24     9      180.000000        0.000000         2
        21        22        23        24     9        0.000000        0.000000         3
        21        22        23        24     9      180.000000        0.000000         4
        21        22        25        44     9        0.000000        0.112216         1
        21        22        25        44     9      180.000000       13.687308         2
        21        22        25        44     9        0.000000       -0.683851         3
        21        22        25        44     9      180.000000        0.115506         4
        23        22        21        43     9        0.000000        0.132147         1
        23        22        21        43     9      180.000000       12.783352         2
        23        22        21        43     9        0.000000       -0.124936         3
        23        22        21        43     9      180.000000       -0.005461         4
        23        22        25        44     9        0.000000        0.062063         1
        23        22        25        44     9      180.000000       12.953868         2
        23        22        25        44     9        0.000000       -0.244048         3
        23        22        25        44     9      180.000000        0.096790         4
        24        23        22        25     9        0.000000        0.000000         1
        24        23        22        25     9      180.000000        0.000000         2
        24        23        22        25     9        0.000000        0.000000         3
        24        23        22        25     9      180.000000        0.000000         4
        25        18        17        26     9        0.000000        0.056545         1
        25        18        17        26     9      180.000000        3.179965         2
        25        18        17        26     9        0.000000        0.082775         3
        25        18        17        26     9      180.000000       -0.153426         4
        25        18        19        42     9        0.000000       -0.172462         1
        25        18        19        42     9      180.000000       12.993838         2
        25        18        19        42     9        0.000000       -0.342542         3
        25        18        19        42     9      180.000000        0.046901         4
        25        22        21        43     9        0.000000        0.031390         1
        25        22        21        43     9      180.000000       13.015305         2
        25        22        21        43     9        0.000000       -0.414861         3
        25        22        21        43     9      180.000000        0.016179         4
        26        13         6        27     9        0.000000       -0.513348         1
        26        13         6        27     9      180.000000       -0.495947         2
        26        13         6        27     9        0.000000        0.168077         3
        26        13         6        27     9      180.000000        0.137032         4
        26        13        14        39     9        0.000000        0.033348         1
        26        13        14        39     9      180.000000       14.525761         2
        26        13        14        39     9        0.000000       -0.654077         3
        26        13        14        39     9      180.000000        0.010725         4
        26        17        16        41     9        0.000000       -0.138020         1
        26        17        16        41     9      180.000000       14.814527         2
        26        17        16        41     9        0.000000       -0.683931         3
        26        17        16        41     9      180.000000        0.030765         4
        27         2         1        29     9        0.000000       -0.064801         1
        27         2         1        29     9      180.000000       -0.077149         2
        27         2         1        29     9        0.000000       -0.306371         3
        27         2         1        29     9      180.000000        0.046923         4
        27         2         1        30     9        0.000000       -0.064801         1
        27         2         1        30     9      180.000000       -0.077149         2
        27         2         1        30     9        0.000000       -0.306371         3
        27         2         1        30     9      180.000000        0.046923         4
        27         2         1        31     9        0.000000       -0.064801         1
        27         2         1        31     9      180.000000       -0.077149         2
        27         2         1        31     9        0.000000       -0.306371         3
        27         2         1        31     9      180.000000        0.046923         4
        27         6         5        33     9        0.000000       -0.467874         1
        27         6         5        33     9      180.000000       -0.863893         2
        27         6         5        33     9        0.000000        0.107572         3
        27         6         5        33     9      180.000000        0.174536         4
        34         8         9        35     9        0.000000       -0.132350         1
        34         8         9        35     9      180.000000       12.096763         2
        34         8         9        35     9        0.000000       -0.739346         3
        34         8         9        35     9      180.000000        0.287473         4
        35         9        10        36     9        0.000000       -0.081259         1
        35         9        10        36     9      180.000000       11.518639         2
        35         9        10        36     9        0.000000       -0.598806         3
        35         9        10        36     9      180.000000        0.259343         4
        36        10        11        37     9        0.000000       -0.081259         1
        36        10        11        37     9      180.000000       11.518641         2
        36        10        11        37     9        0.000000       -0.598806         3
        36        10        11        37     9      180.000000        0.259343         4
        37        11        12        38     9        0.000000       -0.132350         1
        37        11        12        38     9      180.000000       12.096763         2
        37        11        12        38     9        0.000000       -0.739346         3
        37        11        12        38     9      180.000000        0.287473         4
        39        14        15        40     9        0.000000       -0.117658         1
        39        14        15        40     9      180.000000       11.932392         2
        39        14        15        40     9        0.000000       -0.694353         3
        39        14        15        40     9      180.000000        0.275937         4
        40        15        16        41     9        0.000000       -0.168798         1
        40        15        16        41     9      180.000000       11.985178         2
        40        15        16        41     9        0.000000       -0.719034         3
        40        15        16        41     9      180.000000        0.305305         4

[ dihedrals ] ; impropers
;       ai        aj        ak        al funct           phase               k        pn
         3         2         4         5     4      180.000000       10.558910         2
         3         4         5         2     4      180.000000       10.558910         2
         3         5         2         4     4      180.000000       10.558910         2
         8         7         9        34     4      180.000000        0.223529         2
         8         9        34         7     4      180.000000        0.223529         2
         8        34         7         9     4      180.000000        0.223529         2
         9         8        10        35     4      180.000000        0.650929         2
         9        10        35         8     4      180.000000        0.650929         2
         9        35         8        10     4      180.000000        0.650929         2
        10         9        11        36     4      180.000000        1.596565         2
        10        11        36         9     4      180.000000        1.596565         2
        10        36         9        11     4      180.000000        1.596565         2
        11        10        12        37     4      180.000000        0.650929         2
        11        12        37        10     4      180.000000        0.650929         2
        11        37        10        12     4      180.000000        0.650929         2
        12         7        11        38     4      180.000000        0.223528         2
        12        11        38         7     4      180.000000        0.223528         2
        12        38         7        11     4      180.000000        0.223528         2
        15        14        16        40     4      180.000000        0.281448         2
        15        16        40        14     4      180.000000        0.281448         2
        15        40        14        16     4      180.000000        0.281448         2
        19        18        20        42     4      180.000000        4.360014         2
        19        20        42        18     4      180.000000        4.360014         2
        19        42        18        20     4      180.000000        4.360014         2
        21        20        22        43     4      180.000000        7.032434         2
        21        22        43        20     4      180.000000        7.032434         2
        21        43        20        22     4      180.000000        7.032434         2
        27         2         6        28     4      180.000000       27.376329         2
        27         6        28         2     4      180.000000       27.376329         2
        27        28         2         6     4      180.000000       27.376329         2

[ pairs ]
;       ai        aj funct
         1         4     1
         1         5     1
         1         6     1
         1        28     1
         2         7     1
         2        13     1
         2        32     1
         2        33     1
         2        46     1
         3         7     1
         3        13     1
         3        28     1
         3        29     1
         3        30     1
         3        31     1
         4         6     1
         4        27     1
         4        33     1
         5         8     1
         5        12     1
         5        14     1
         5        26     1
         5        28     1
         5        32     1
         5        46     1
         6         9     1
         6        11     1
         6        15     1
         6        17     1
         6        34     1
         6        38     1
         6        39     1
         6        45     1
         7        10     1
         7        14     1
         7        26     1
         7        28     1
         7        33     1
         7        35     1
         7        37     1
         8        11     1
         8        13     1
         8        27     1
         8        36     1
         8        38     1
         9        12     1
         9        37     1
        10        34     1
        10        38     1
        11        35     1
        12        13     1
        12        27     1
        12        34     1
        12        36     1
        13        16     1
        13        18     1
        13        28     1
        13        33     1
        13        40     1
        14        17     1
        14        27     1
        14        41     1
        14        45     1
        15        18     1
        15        26     1
        16        19     1
        16        25     1
        16        39     1
        16        45     1
        17        20     1
        17        22     1
        17        40     1
        17        42     1
        17        44     1
        18        21     1
        18        23     1
        18        41     1
        18        45     1
        19        22     1
        19        26     1
        19        43     1
        19        44     1
        20        23     1
        20        25     1
        21        24     1
        21        42     1
        21        44     1
        23        43     1
        23        44     1
        24        25     1
        25        26     1
        25        42     1
        25        43     1
        26        27     1
        26        39     1
        26        41     1
        27        29     1
        27        30     1
        27        31     1
        27        33     1
        34        35     1
        35        36     1
        36        37     1
        37        38     1
        39        40     1
        40        41     1
